22
 energy:      -571.1405970190
 N        0.0000000000        1.3743640000       -1.5513110000
 C        0.0000000000        2.6866180000       -1.5392050000
 C        0.0000000000        0.7256180000       -0.3767930000
 C        0.0000000000        3.4598570000       -0.3699480000
 C        0.0000000000        2.8099920000        0.8359700000
 C        0.0000000000        1.4066770000        0.8631850000
 C       -0.0000000000       -0.7256180000       -0.3767930000
 C       -0.0000000000       -1.4066770000        0.8631850000
 C        0.0000000000        0.6759000000        2.0881640000
 C       -0.0000000000       -0.6759000000        2.0881640000
 N       -0.0000000000       -1.3743640000       -1.5513110000
 C       -0.0000000000       -2.6866180000       -1.5392050000
 C       -0.0000000000       -3.4598570000       -0.3699480000
 C       -0.0000000000       -2.8099920000        0.8359700000
 H        0.0000000000        3.1762740000       -2.5096910000
 H        0.0000000000        4.5408230000       -0.4306250000
 H        0.0000000000        3.3607140000        1.7703600000
 H        0.0000000000        1.2290200000        3.0208920000
 H       -0.0000000000       -1.2290200000        3.0208920000
 H       -0.0000000000       -4.5408230000       -0.4306250000
 H       -0.0000000000       -3.3607140000        1.7703600000
 H       -0.0000000000       -3.1762740000       -2.5096910000
