33
 energy:      -726.7096507620
 N        2.3952540000        0.6253300000        0.4080510000
 C        1.7996700000       -0.4044620000        1.0315490000
 C        0.4373270000       -0.5884530000        0.9447630000
 C        1.6740530000        1.4873760000       -0.3289830000
 C        0.3122070000        1.3528100000       -0.4428930000
 C       -0.3354870000        0.2929230000        0.1952950000
 C       -1.7978650000        0.1101790000        0.0755320000
 C       -2.3526270000       -1.1616090000       -0.0649080000
 C       -3.7160410000       -1.3059410000       -0.1766280000
 N       -4.5289490000       -0.2386230000       -0.1452490000
 C       -2.6672900000        1.1999630000        0.0989960000
 C       -4.0237870000        0.9969060000       -0.0086710000
 H        2.4344650000       -1.0572550000        1.6120260000
 H       -0.0030210000       -1.4151310000        1.4860900000
 H        2.2199010000        2.2807870000       -0.8211820000
 H       -0.2249810000        2.0631090000       -1.0571490000
 H       -1.7355660000       -2.0492030000       -0.1131430000
 H       -4.1892580000       -2.2715340000       -0.2961290000
 H       -4.7358270000        1.8110360000        0.0163600000
 H       -2.3081540000        2.2122960000        0.2292510000
 C       -5.9821570000       -0.4227700000       -0.2995780000
 H       -6.2672690000       -1.3805500000        0.1282310000
 H       -6.2339520000       -0.3992090000       -1.3598230000
 H       -6.5000270000        0.3776640000        0.2224310000
 C        3.8515610000        0.6987520000        0.4245850000
 C        4.4541350000       -0.5319220000       -0.3022800000
 H        4.2035130000        0.6993680000        1.4590330000
 H        4.1727300000        1.6304770000       -0.0382480000
 C        5.9059100000       -0.4395140000       -0.6128230000
 H        6.0548740000        0.2706830000       -1.4326870000
 H        6.2834150000       -1.4139360000       -0.9134470000
 H        6.4696920000       -0.0595010000        0.2427640000
 O        3.7422100000       -1.4639350000       -0.5509670000
