32
 energy:      -688.6371568960
 N       -2.7194450000        0.5189600000        0.3225610000
 C       -2.1246550000       -0.5449900000        0.8835300000
 C       -0.7597880000       -0.7114230000        0.8043160000
 C       -1.9964470000        1.4400780000       -0.3325400000
 C       -0.6295910000        1.3281130000       -0.4331990000
 C        0.0184460000        0.2345940000        0.1415010000
 C        1.4875280000        0.0870380000        0.0548690000
 C        2.0749300000       -1.1605590000       -0.1527060000
 C        3.4442270000       -1.2699400000       -0.2266730000
 N        4.2319330000       -0.1916410000       -0.0943440000
 C        2.3317880000        1.1893920000        0.1830070000
 C        3.6952360000        1.0212670000        0.1086320000
 H       -2.7730020000       -1.2476570000        1.3869210000
 H       -0.3196120000       -1.5710840000        1.2919410000
 H       -2.5429360000        2.2662820000       -0.7674070000
 H       -0.0891740000        2.0891560000       -0.9803080000
 H        1.4801170000       -2.0552710000       -0.2809200000
 H        3.9423840000       -2.2155480000       -0.3946150000
 H        4.3878400000        1.8456710000        0.2142190000
 H        1.9464240000        2.1828760000        0.3706700000
 C        5.6933520000       -0.3353040000       -0.2094350000
 H        5.9839630000       -1.3192570000        0.1496520000
 H        6.1749800000        0.4293850000        0.3945200000
 H        5.9818000000       -0.2204330000       -1.2542710000
 C       -4.1930630000        0.6362870000        0.3860410000
 C       -4.8559690000       -0.2339090000       -0.6637190000
 H       -4.4543490000        1.6840750000        0.2494890000
 H       -4.4965010000        0.3237590000        1.3847800000
 O       -4.4321410000       -1.5502860000       -0.4313010000
 H       -4.5868490000        0.1107920000       -1.6700660000
 H       -5.9372560000       -0.1108000000       -0.5413000000
 H       -4.9440690000       -2.1647490000       -0.9621660000
