38
 energy:      -805.0418577290
 N       -1.4462620000        1.1198280000       -0.2150900000
 C       -1.0969840000       -0.1407510000        0.0541710000
 C        0.2321790000       -0.5073850000        0.1189790000
 C        1.2261960000        0.4433200000       -0.0895810000
 C       -0.5099340000        2.0580900000       -0.4249380000
 C        0.8282620000        1.7532120000       -0.3648780000
 C        2.6582230000        0.0811200000       -0.0217390000
 C        3.1210140000       -1.1297520000       -0.5358810000
 C        4.4586510000       -1.4412250000       -0.4593090000
 N        5.3330930000       -0.5985640000        0.1116130000
 C        3.5917340000        0.9376120000        0.5612590000
 C        4.9167310000        0.5724640000        0.6176060000
 H       -1.9120950000       -0.8345340000        0.2161890000
 H        0.4687720000       -1.5353500000        0.3601970000
 H        1.5463620000        2.5385660000       -0.5606860000
 H       -0.8685480000        3.0555690000       -0.6449280000
 H        2.4564300000       -1.8328980000       -1.0201630000
 H        4.8626690000       -2.3645920000       -0.8525320000
 H        5.6727360000        1.2003690000        1.0699960000
 H        3.3000600000        1.8816410000        1.0021780000
 C        6.7642460000       -0.9441100000        0.1492350000
 H        6.8686950000       -2.0247240000        0.2025800000
 H        7.2170120000       -0.4910810000        1.0274700000
 H        7.2459960000       -0.5680860000       -0.7533000000
 C       -2.8996440000        1.5399830000       -0.2916020000
 C       -3.8674510000        0.4301290000       -0.0734890000
 H       -3.0147090000        1.9865740000       -1.2803580000
 H       -3.0095400000        2.3240760000        0.4591470000
 C       -4.3348330000        0.1508590000        1.2097520000
 C       -4.3256010000       -0.3216610000       -1.1543370000
 C       -5.2336530000       -1.3485520000       -0.9510240000
 C       -5.6894570000       -1.6269310000        0.3305630000
 C       -5.2429510000       -0.8767250000        1.4100240000
 H       -5.6156690000       -1.0813760000        2.4056670000
 H       -4.0072550000        0.7513200000        2.0522010000
 H       -3.9911890000       -0.0903790000       -2.1604590000
 H       -5.5995520000       -1.9205320000       -1.7942790000
 H       -6.4083510000       -2.4215990000        0.4865760000
