31
 energy:     -1147.8620646600
 C        2.6827740000        1.4556790000        0.0173370000
 C        2.6161870000        0.0795010000        0.0958780000
 C        1.5307430000        2.1606250000       -0.2598920000
 C        1.3522060000       -0.5727720000       -0.0014320000
 N        0.3321150000        1.5784540000       -0.3312840000
 C        0.1959000000        0.2296580000       -0.0917260000
 C        1.2413950000       -1.9876320000       -0.0642940000
 C        0.0371090000       -2.5759730000       -0.2527280000
 C       -1.1557410000       -1.8066820000       -0.2026900000
 C       -1.0843890000       -0.4124450000       -0.0080280000
 C       -2.4225470000       -2.4187220000       -0.2845840000
 C       -3.5603660000       -1.6757690000       -0.1087340000
 C       -3.4256640000       -0.3464070000        0.2661750000
 N       -2.2394280000        0.2559590000        0.3328950000
 H        3.6274980000        1.9775310000        0.0887620000
 H        1.5608910000        3.2217710000       -0.4723180000
 H        2.1443750000       -2.5807810000       -0.0141950000
 H       -0.0405830000       -3.6476420000       -0.3886900000
 C       -2.1578880000        1.5716860000        1.0122830000
 C       -1.8603190000        2.7187500000        0.0735290000
 H       -1.3800460000        1.4704140000        1.7709840000
 H       -3.0983580000        1.7222990000        1.5375010000
 C       -0.7894260000        2.3423660000       -0.9253790000
 H       -1.5582940000        3.5761020000        0.6782570000
 H       -2.7500940000        3.0200980000       -0.4827020000
 H       -0.3639050000        3.2234950000       -1.4006090000
 H       -1.1950300000        1.7159850000       -1.7218330000
 H       -4.5486060000       -2.1112680000       -0.1717440000
 H       -4.2785130000        0.2473700000        0.5697890000
 H       -2.4814820000       -3.4852660000       -0.4703150000
Cl        4.0302050000       -0.8095400000        0.2865620000
