29
 energy:      -666.3124979270
 N       -2.8377330000        0.4687770000        0.1045100000
 C       -2.2935890000       -0.7147310000       -0.2112410000
 C       -0.9244170000       -0.8698990000       -0.2426020000
 C       -2.0622070000        1.5299560000        0.3924820000
 C       -0.6934670000        1.4281160000        0.3673390000
 C       -0.0924840000        0.2077730000        0.0474560000
 C        1.3800920000        0.0645630000        0.0175600000
 C        1.9994140000       -1.0853530000        0.5054150000
 C        3.3706930000       -1.1946540000        0.4627840000
 N        4.1263830000       -0.2120400000       -0.0505870000
 C        2.1914280000        1.0712610000       -0.5037620000
 C        3.5574820000        0.9045690000       -0.5296030000
 H       -2.9787530000       -1.5230130000       -0.4370340000
 H       -0.5292300000       -1.8379700000       -0.5214340000
 H       -2.5712230000        2.4515160000        0.6452490000
 H       -0.1092430000        2.3017630000        0.6251140000
 H        1.4333120000       -1.8971710000        0.9430570000
 H        3.8947620000       -2.0641530000        0.8370910000
 H        4.2250970000        1.6529770000       -0.9356240000
 H        1.7778070000        1.9795690000       -0.9219650000
 C        5.5941390000       -0.3454980000       -0.0552580000
 H        5.8556990000       -1.3962480000       -0.1509090000
 H        5.9902330000        0.0533320000        0.8787210000
 H        5.9992630000        0.2094170000       -0.8975560000
 C       -4.3148760000        0.6679730000        0.1479930000
 C       -5.0325700000       -0.5565640000       -0.1361050000
 H       -4.5745910000        1.4341080000       -0.5867970000
 H       -4.5764870000        1.0331330000        1.1440280000
 N       -5.5621470000       -1.5484960000       -0.3677350000
