30
 energy:     -1068.8259501100
 C        3.4686360000       -1.9986980000        0.1667780000
 C        4.1129460000       -0.8584740000        0.6193790000
 C        2.1720900000       -1.9217230000       -0.3174930000
 C        1.5133590000       -0.6982180000       -0.3898470000
 C        2.1737190000        0.4542000000        0.0473960000
 C        3.4548240000        0.3624300000        0.5705440000
 H        3.9690740000       -2.9586940000        0.2000390000
 H        1.6613910000       -2.8176680000       -0.6547150000
 H        5.1209010000       -0.9138360000        1.0102480000
 H        3.9444930000        1.2627180000        0.9228730000
 N        0.2232260000       -0.6134850000       -0.8965890000
 C       -0.6854820000        0.3334610000       -0.4495800000
 C       -0.2708880000        1.6016370000       -0.0444020000
 S        1.4299920000        2.0353750000       -0.1698150000
 C       -2.0499430000        0.0266850000       -0.4230810000
 C       -2.9794100000        0.9889480000       -0.0609990000
 C       -2.5554390000        2.2464010000        0.3403660000
 C       -1.2011460000        2.5426460000        0.3730030000
 H       -4.0314050000        0.7373910000       -0.1006010000
 H       -0.8589920000        3.5180810000        0.6968700000
 H       -3.2798740000        2.9965220000        0.6309470000
 H       -0.2034130000       -1.4794990000       -1.1826720000
 O       -2.4352490000       -1.2228350000       -0.8392630000
 C       -2.5220650000       -2.2068250000        0.1958800000
 C       -3.7765030000       -2.0908970000        1.0293910000
 H       -1.6309500000       -2.1464130000        0.8318850000
 H       -2.5000960000       -3.1648280000       -0.3273550000
 H       -3.8006920000       -1.1536740000        1.5864070000
 H       -3.8139370000       -2.9104600000        1.7505240000
 H       -4.6651520000       -2.1480040000        0.3988050000
