25
 energy:      -609.7489928320
 N        3.6109040000       -0.0009300000        0.0040170000
 C        2.9102730000        1.1603950000       -0.1936010000
 C        1.5459410000        1.1745970000       -0.1904930000
 C        2.9083340000       -1.1616550000        0.1983720000
 C        1.5440290000       -1.1745300000        0.1895550000
 C        0.8017170000        0.0004350000       -0.0017960000
 C       -0.6453290000        0.0009880000       -0.0037810000
 C       -1.3939100000        1.1765480000        0.1891130000
 C       -2.7600530000        1.1491260000        0.1808780000
 N       -3.4390770000        0.0027710000       -0.0138490000
 C       -1.3940820000       -1.1737880000       -0.2021980000
 C       -2.7600870000       -1.1448750000       -0.2021640000
 H        3.5352970000        2.0265280000       -0.3511640000
 H        1.0654830000        2.1261260000       -0.3753040000
 H        3.5318670000       -2.0284260000        0.3583100000
 H        1.0618430000       -2.1256260000        0.3721450000
 H       -0.9119730000        2.1257430000        0.3734050000
 H       -3.3561190000        2.0378440000        0.3368550000
 H       -3.3564030000       -2.0325890000       -0.3630910000
 H       -0.9119930000       -2.1221310000       -0.3903930000
 C       -4.9019800000       -0.0052090000        0.0281680000
 H       -5.2762590000        0.9573880000       -0.3112600000
 H       -5.2422120000       -0.1922770000        1.0467440000
 H       -5.2756640000       -0.7850390000       -0.6309630000
 O        4.8505280000       -0.0015770000        0.0064030000
