25
 energy:     -1028.3563367600
 C       -3.5080640000        0.6540520000       -0.8603140000
 C       -3.7169080000       -0.6782360000       -0.5381630000
 C       -2.2647060000        1.2314140000       -0.6521950000
 C       -1.2370550000        0.4926590000       -0.0783740000
 C       -1.4418360000       -0.8533180000        0.2233290000
 C       -2.6793820000       -1.4361170000       -0.0189390000
 H       -4.3063970000        1.2438050000       -1.2928500000
 H       -2.0848180000        2.2601600000       -0.9391510000
 H       -4.6821720000       -1.1372710000       -0.7116430000
 H       -2.8237430000       -2.4860710000        0.2053900000
 N        0.0147900000        1.0877610000        0.2058550000
 C        1.1936540000        0.3594420000       -0.0984340000
 C        1.2307020000       -1.0047210000        0.1855850000
 S       -0.1465310000       -1.7934660000        0.9415680000
 C        2.2974730000        0.9741890000       -0.6748530000
 C        3.4418250000        0.2367490000       -0.9330390000
 C        3.4829010000       -1.1188760000       -0.6426850000
 C        2.3729460000       -1.7429720000       -0.0984590000
 H        2.2626580000        2.0317370000       -0.8910220000
 H        4.3038020000        0.7274140000       -1.3673660000
 H        2.3840790000       -2.8057240000        0.1109830000
 H        4.3752740000       -1.6961150000       -0.8506920000
 C        0.0557880000        2.3225830000        0.8115610000
 O        1.0506620000        2.9565690000        1.0509280000
 H       -0.9570420000        2.6695490000        1.0727370000
