26
 energy:      -954.3693872230
 C       -3.5082320000        0.7105080000       -0.6171030000
 C       -3.6199150000       -0.6685050000       -0.6003780000
 C       -2.3101920000        1.3249560000       -0.2790270000
 C       -1.2077290000        0.5697130000        0.1177770000
 C       -1.3326920000       -0.8250620000        0.1366980000
 C       -2.5199090000       -1.4331070000       -0.2387750000
 H       -4.3528830000        1.3232550000       -0.9077970000
 H       -2.2391470000        2.4029850000       -0.3267790000
 H       -4.5504590000       -1.1509690000       -0.8712380000
 H       -2.5811780000       -2.5149240000       -0.2279920000
 N       -0.0000000000        1.1669040000        0.5022050000
 C        1.2077290000        0.5697130000        0.1177780000
 C        1.3326930000       -0.8250620000        0.1366980000
 S        0.0000000000       -1.7996530000        0.7333500000
 C        2.3101920000        1.3249560000       -0.2790270000
 C        3.5082320000        0.7105080000       -0.6171030000
 C        3.6199160000       -0.6685040000       -0.6003780000
 C        2.5199100000       -1.4331070000       -0.2387750000
 H        2.2391470000        2.4029850000       -0.3267800000
 H        4.3528830000        1.3232560000       -0.9077980000
 H        2.5811790000       -2.5149230000       -0.2279920000
 H        4.5504600000       -1.1509680000       -0.8712380000
 C       -0.0000010000        2.5824270000        0.7687230000
 H       -0.8818340000        2.8333190000        1.3570410000
 H       -0.0000010000        3.2022040000       -0.1381610000
 H        0.8818300000        2.8333200000        1.3570430000
