34
 energy:      -951.0862230130
 N       -3.4209050000        0.0279630000       -0.7224490000
 C       -2.8562620000       -1.0650980000       -0.1840330000
 C       -1.5099770000       -1.0943470000        0.0986300000
 C       -2.6875960000        1.1234690000       -0.9777980000
 C       -1.3411640000        1.1507980000       -0.7035750000
 C       -0.7234370000        0.0273970000       -0.1531520000
 C        0.7234380000        0.0273890000        0.1531540000
 C        1.5099760000       -1.0943440000       -0.0986780000
 C        1.3411660000        1.1507650000        0.7036270000
 C        2.6875980000        1.1234220000        0.9778500000
 C        2.8562620000       -1.0651100000        0.1839860000
 N        3.4209060000        0.0279270000        0.7224510000
 H        3.2078030000        1.9681810000        1.4087620000
 H        0.7846420000        2.0460810000        0.9468650000
 H        1.0990180000       -1.9903960000       -0.5443350000
 H        3.5077510000       -1.9043220000       -0.0123270000
 H       -0.7846390000        2.0461250000       -0.9467730000
 H       -3.2078010000        1.9682480000       -1.4086720000
 H       -3.5077530000       -1.9043190000        0.0122430000
 H       -1.0990200000       -1.9904190000        0.5442470000
 C       -4.8673480000        0.0393220000       -0.9464900000
 C       -5.6006640000       -0.0606830000        0.3920690000
 H       -5.1465200000       -0.8106820000       -1.5724960000
 H       -5.1478370000        0.9490270000       -1.4734270000
 O       -5.0508310000       -0.3474550000        1.4148450000
 O       -6.8786260000        0.1886120000        0.2099760000
 C        4.8673490000        0.0392750000        0.9464920000
 C        5.6006640000       -0.0606670000       -0.3920720000
 H        5.1465210000       -0.8107600000        1.5724560000
 H        5.1478390000        0.9489530000        1.4734730000
 O        6.8786250000        0.1886260000       -0.2099700000
 O        5.0508290000       -0.3473880000       -1.4148620000
 H       -7.3606070000        0.0921560000        1.0454150000
 H        7.3606050000        0.0922120000       -1.0454150000
