32
 energy:      -726.3141620940
 N       -3.4908830000       -0.3468800000       -0.1886130000
 C       -2.8546760000        0.7456170000        0.2453430000
 C       -2.8067590000       -1.4445300000       -0.5520160000
 C       -1.4778240000        0.7716630000        0.3255880000
 C       -0.7384440000       -0.3490160000       -0.0396820000
 C       -1.4360170000       -1.4752910000       -0.4839390000
 C        0.7384550000       -0.3490160000        0.0396900000
 C        1.4778320000        0.7716810000       -0.3255280000
 C        2.8546840000        0.7456340000       -0.2452890000
 N        3.4908970000       -0.3468820000        0.1886140000
 C        2.8067750000       -1.4445490000        0.5519680000
 C        1.4360320000       -1.4753100000        0.4838940000
 H        3.3909300000       -2.2873290000        0.8992060000
 H        0.9243220000       -2.3731330000        0.8045410000
 H        1.0037610000        1.6690210000       -0.7008300000
 H        3.4851280000        1.5814040000       -0.5234010000
 H       -3.3909120000       -2.2872950000       -0.8992940000
 H       -0.9243040000       -2.3730980000       -0.8046260000
 H       -3.4851230000        1.5813720000        0.5234930000
 H       -1.0037550000        1.6689860000        0.7009330000
 C       -4.9864880000       -0.3930780000       -0.2879370000
 C       -5.6268630000        0.8290110000        0.1248890000
 H       -5.3138690000       -1.2327690000        0.3309480000
 H       -5.2219240000       -0.6233340000       -1.3304740000
 C       -6.2206720000        1.8162820000        0.4546940000
 H       -6.7619140000        2.6901950000        0.7457220000
 C        4.9865030000       -0.3930840000        0.2879330000
 C        5.6268780000        0.8290330000       -0.1248150000
 H        5.3138840000       -1.2327370000       -0.3310040000
 H        5.2219410000       -0.6234040000        1.3304540000
 C        6.2206620000        1.8163210000       -0.4546110000
 H        6.7612620000        2.6902500000       -0.7467760000
