30
 energy:     -2488.1002950800
 N       -3.4868460000       -0.2187200000        0.2006740000
 C       -2.8056620000        0.8840520000        0.5591210000
 C       -1.4326320000        0.9124900000        0.4800780000
 C       -2.8465350000       -1.3228780000       -0.2278690000
 C       -1.4762280000       -1.3451800000       -0.3135090000
 C       -0.7381580000       -0.2138140000        0.0407870000
 C        0.7381580000       -0.2138140000       -0.0407870000
 C        1.4326320000        0.9124900000       -0.4800780000
 C        2.8056620000        0.8840520000       -0.5591210000
 N        3.4868460000       -0.2187200000       -0.2006740000
 C        1.4762280000       -1.3451790000        0.3135090000
 C        2.8465350000       -1.3228780000        0.2278690000
 H       -3.4694000000       -2.1665180000       -0.4938800000
 H       -3.3938690000        1.7165960000        0.9191040000
 H       -0.9194440000        1.8091750000        0.8014400000
 H       -1.0000230000       -2.2425150000       -0.6859180000
 H        3.4694000000       -2.1665170000        0.4938800000
 H        1.0000230000       -2.2425150000        0.6859180000
 H        0.9194440000        1.8091750000       -0.8014400000
 H        3.3938690000        1.7165960000       -0.9191040000
 C       -4.9279520000       -0.2242620000        0.2863780000
 C       -5.6814950000        0.6126010000       -0.4240110000
 C        4.9279520000       -0.2242620000       -0.2863780000
 C        5.6814950000        0.6126010000        0.4240110000
Cl       -5.0848750000        1.7490730000       -1.5270570000
Cl       -5.5601210000       -1.3949880000        1.3412430000
Cl        5.0848750000        1.7490730000        1.5270570000
Cl        5.5601210000       -1.3949880000       -1.3412430000
 H       -6.7591390000        0.5768190000       -0.3244460000
 H        6.7591390000        0.5768190000        0.3244460000
