36
 energy:      -803.0815061610
 N        3.4969150000        0.1696850000       -0.3466480000
 C        2.8807110000       -0.9592040000       -0.7287680000
 C        2.7825880000        1.2299580000        0.0603730000
 C        1.5080420000       -1.0561790000       -0.7183100000
 C        0.7388020000        0.0337610000       -0.3123790000
 C        1.4072320000        1.1918950000        0.0830200000
 C       -0.7388020000       -0.0337510000       -0.3123790000
 C       -1.4072320000       -1.1918870000        0.0830130000
 C       -2.7825890000       -1.2299500000        0.0603650000
 N       -3.4969150000       -0.1696750000       -0.3466500000
 C       -2.8807110000        0.9592160000       -0.7287640000
 C       -1.5080420000        1.0561910000       -0.7183050000
 H       -3.5184660000        1.7704220000       -1.0544070000
 H       -1.0551120000        1.9767060000       -1.0621780000
 H       -0.8741420000       -2.0675810000        0.4289700000
 H       -3.3451550000       -2.1050590000        0.3578980000
 H        3.3451550000        2.1050640000        0.3579110000
 H        0.8741420000        2.0675860000        0.4289820000
 H        3.5184660000       -1.7704080000       -1.0544150000
 H        1.0551120000       -1.9766930000       -1.0621880000
 C        4.9699670000        0.2332270000       -0.3399500000
 C        5.5466710000       -0.2288140000        0.9941050000
 H        5.2671760000        1.2614000000       -0.5422920000
 H        5.3412530000       -0.3956210000       -1.1481500000
 O        6.9206320000       -0.1063900000        0.8248370000
 H        5.2336080000       -1.2634610000        1.1949600000
 H        5.1599440000        0.4050350000        1.8049160000
 C       -4.9699670000       -0.2332180000       -0.3399530000
 C       -5.5466710000        0.2287950000        0.9941120000
 H       -5.2671750000       -1.2613880000       -0.5423130000
 H       -5.3412540000        0.3956440000       -1.1481410000
 O       -6.9206310000        0.1063530000        0.8248490000
 H       -5.2336220000        1.2634430000        1.1949800000
 H       -5.1599310000       -0.4050600000        1.8049120000
 H        7.3882570000       -0.3734610000        1.6195310000
 H       -7.3882570000        0.3734370000        1.6195390000
