40
 energy:      -731.3147860480
 N        3.5040050000        0.1645620000        0.0840300000
 C        2.8452550000       -0.9298550000       -0.3223040000
 C        1.4705420000       -0.9608050000       -0.3618200000
 C        2.8268030000        1.2572990000        0.4580950000
 C        1.4497590000        1.2889030000        0.4322290000
 C        0.7391120000        0.1647180000        0.0179470000
 C       -0.7391120000        0.1647180000       -0.0179470000
 C       -1.4705420000       -0.9608050000        0.3618200000
 C       -1.4497590000        1.2889030000       -0.4322290000
 C       -2.8268030000        1.2572990000       -0.4580960000
 C       -2.8452550000       -0.9298550000        0.3223040000
 N       -3.5040050000        0.1645620000       -0.0840300000
 H       -0.9855550000       -1.8609400000        0.7158070000
 H       -3.4480520000       -1.7769060000        0.6179470000
 H        3.4480520000       -1.7769060000       -0.6179470000
 H        0.9855550000       -1.8609410000       -0.7158060000
 H        3.4159520000        2.1047080000        0.7823220000
 H        0.9495360000        2.1894050000        0.7632920000
 H       -3.4159520000        2.1047080000       -0.7823230000
 H       -0.9495360000        2.1894040000       -0.7632930000
 C        5.0104860000        0.1637530000        0.1178840000
 C        5.5067590000       -0.8779380000        1.1020130000
 H        5.3010960000       -1.8949010000        0.7626730000
 H        5.0784010000       -0.7391250000        2.0951730000
 C       -5.0104860000        0.1637520000       -0.1178840000
 C       -5.5067590000       -0.8779380000       -1.1020130000
 H       -5.3010960000       -1.8949010000       -0.7626720000
 H       -5.0784010000       -0.7391260000       -2.0951730000
 C        5.5597580000       -0.0067270000       -1.2855200000
 H        5.2636910000        1.1586120000        0.4866120000
 H        5.3532290000       -0.9995060000       -1.6896920000
 H        6.6434710000        0.1054270000       -1.2462410000
 H        5.1700770000        0.7460530000       -1.9715120000
 C       -5.5597580000       -0.0067260000        1.2855200000
 H       -5.2636910000        1.1586110000       -0.4866130000
 H       -5.3532290000       -0.9995050000        1.6896930000
 H       -6.6434710000        0.1054270000        1.2462410000
 H       -5.1700770000        0.7460540000        1.9715120000
 H        6.5892240000       -0.7808470000        1.1880780000
 H       -6.5892240000       -0.7808480000       -1.1880780000
