36
 energy:      -911.3762206220
 N       -3.4085830000        0.0144000000        0.7756360000
 C       -2.8525310000       -1.0785830000        0.2283330000
 C       -1.5087910000       -1.1069610000       -0.0725740000
 C       -2.6719740000        1.1122250000        1.0150930000
 C       -1.3312020000        1.1400340000        0.7219170000
 C       -0.7206280000        0.0148070000        0.1637750000
 C        0.7206290000        0.0148050000       -0.1637760000
 C        1.5087910000       -1.1069600000        0.0725820000
 C        1.3312030000        1.1400280000       -0.7219280000
 C        2.6719750000        1.1122170000       -1.0151030000
 C        2.8525310000       -1.0785850000       -0.2283250000
 N        3.4085840000        0.0143930000       -0.7756370000
 H        3.1870340000        1.9583280000       -1.4489870000
 H        0.7707860000        2.0354480000       -0.9548940000
 H        1.1032490000       -2.0034880000        0.5218250000
 H        3.5043240000       -1.9202400000       -0.0496570000
 H       -0.7707860000        2.0354560000        0.9548760000
 H       -3.1870330000        1.9583400000        1.4489700000
 H       -3.5043230000       -1.9202390000        0.0496730000
 H       -1.1032490000       -2.0034920000       -0.5218100000
 C       -4.8546020000        0.0309490000        0.9724760000
 C       -5.5410890000       -0.0507950000       -0.4120460000
 H       -5.1266720000        0.9305200000        1.5212310000
 H       -5.1424330000       -0.8376660000        1.5677170000
 O       -4.9042340000       -0.4227350000       -1.3714310000
 N       -6.8322410000        0.2813320000       -0.4133060000
 C        4.8546030000        0.0309410000       -0.9724760000
 C        5.5410890000       -0.0507910000        0.4120480000
 H        5.1266730000        0.9305070000       -1.5212380000
 H        5.1424340000       -0.8376790000       -1.5677090000
 N        6.8322400000        0.2813370000        0.4133060000
 O        4.9042320000       -0.4227230000        1.3714350000
 H       -7.3252960000        0.5851000000        0.4080130000
 H       -7.3509770000        0.1937280000       -1.2734600000
 H        7.3252970000        0.5850910000       -0.4080160000
 H        7.3509760000        0.1937370000        1.2734610000
