36
 energy:      -728.8359423500
 N       -3.4821590000        0.2902310000       -0.3558920000
 C       -2.8621620000       -0.8034040000        0.1084640000
 C       -1.4935830000       -0.8341490000        0.2509500000
 C       -2.7797680000        1.3834580000       -0.6835940000
 C       -1.4102060000        1.4138510000       -0.5496480000
 C       -0.7355220000        0.2894120000       -0.0764690000
 C        0.7355220000        0.2894120000        0.0764690000
 C        1.4935830000       -0.8341490000       -0.2509500000
 C        2.8621620000       -0.8034040000       -0.1084640000
 N        3.4821590000        0.2902310000        0.3558920000
 C        1.4102060000        1.4138510000        0.5496480000
 C        2.7797680000        1.3834580000        0.6835940000
 H       -3.3432990000        2.2279860000       -1.0575360000
 H       -0.8843080000        2.3134130000       -0.8410840000
 H       -3.5026390000       -1.6362300000        0.3700510000
 H       -1.0373680000       -1.7323510000        0.6458050000
 H        3.3432990000        2.2279860000        1.0575360000
 H        0.8843080000        2.3134130000        0.8410840000
 H        1.0373680000       -1.7323510000       -0.6458050000
 H        3.5026390000       -1.6362300000       -0.3700510000
 C       -4.9704220000        0.2726100000       -0.5453760000
 C       -5.6832810000       -0.3775390000        0.5887620000
 H       -5.1618470000       -0.2453670000       -1.4872020000
 H       -5.2650720000        1.3166140000       -0.6609080000
 C       -6.4554380000       -1.4436380000        0.4285890000
 C        4.9704220000        0.2726100000        0.5453760000
 C        5.6832810000       -0.3775390000       -0.5887620000
 H        5.1618470000       -0.2453670000        1.4872020000
 H        5.2650720000        1.3166140000        0.6609080000
 C        6.4554380000       -1.4436380000       -0.4285890000
 H        5.5976740000        0.1033180000       -1.5591710000
 H        6.5820670000       -1.9217370000        0.5372720000
 H        7.0133110000       -1.8608710000       -1.2574440000
 H       -5.5976740000        0.1033180000        1.5591710000
 H       -6.5820670000       -1.9217370000       -0.5372720000
 H       -7.0133110000       -1.8608710000        1.2574440000
