28
 energy:      -574.1732647390
 N        3.5015970000        0.0046590000       -0.0085170000
 C        2.8361390000       -1.0908150000       -0.4050820000
 C        1.4603910000       -1.1220590000       -0.4078910000
 C        2.8346090000        1.0978410000        0.3919580000
 C        1.4588720000        1.1248470000        0.4012250000
 C        0.7397450000        0.0004310000       -0.0020870000
 C       -0.7397440000       -0.0004290000       -0.0021350000
 C       -1.4588980000       -1.1248300000        0.4011750000
 C       -1.4603660000        1.1220440000       -0.4080270000
 C       -2.8361140000        1.0908000000       -0.4053040000
 C       -2.8346340000       -1.0978250000        0.3918190000
 N       -3.5015970000       -0.0046580000       -0.0087400000
 H       -3.4357510000        1.9336140000       -0.7226570000
 H       -0.9682480000        2.0201440000       -0.7574850000
 H       -0.9656170000       -2.0233380000        0.7479540000
 H       -3.4333050000       -1.9430910000        0.7045140000
 H        0.9655700000        2.0233680000        0.7479380000
 H        3.4332600000        1.9431190000        0.7046580000
 H        3.4357970000       -1.9336400000       -0.7223640000
 H        0.9682960000       -2.0201720000       -0.7573460000
 C        4.9747020000       -0.0052320000        0.0223320000
 H        5.3425950000       -0.6683650000       -0.7564060000
 H        5.3078750000       -0.3569410000        0.9988010000
 H        5.3413720000        1.0027390000       -0.1540800000
 C       -4.9747040000        0.0052280000        0.0220140000
 H       -5.3425480000        0.6684090000       -0.7567050000
 H       -5.3079400000        0.3568750000        0.9984840000
 H       -5.3413590000       -1.0027340000       -0.1544850000
