30
 energy:      -724.3902934840
 N        0.0044810000        3.4846620000        0.1540950000
 C        0.3877180000        2.8438040000       -0.9568580000
 C        0.3871270000        1.4642100000       -0.9769200000
 C       -0.3823260000        2.8302480000        1.2629660000
 C       -0.3871270000        1.4593580000        1.2784790000
 C        0.0000780000        0.7384550000        0.1453310000
 C       -0.0000780000       -0.7384550000        0.1453310000
 C       -0.3871270000       -1.4642100000       -0.9769200000
 C        0.3871270000       -1.4593580000        1.2784790000
 C        0.3823260000       -2.8302480000        1.2629660000
 C       -0.3877180000       -2.8438040000       -0.9568580000
 N       -0.0044810000       -3.4846620000        0.1540950000
 H        0.6776460000       -3.4576710000        2.0932600000
 H        0.7239130000       -0.9666080000        2.1811160000
 H       -0.7244900000       -0.9771400000       -1.8824470000
 H       -0.6927870000       -3.4410690000       -1.8021060000
 H       -0.7239130000        0.9666080000        2.1811160000
 H       -0.6776460000        3.4576710000        2.0932600000
 H        0.6927870000        3.4410690000       -1.8021060000
 H        0.7244900000        0.9771400000       -1.8824470000
 O       -0.0344650000        4.8250640000        0.2839910000
 C        0.3518340000        5.6044830000       -0.8570030000
 H        1.3976950000        5.4284730000       -1.1145400000
 H        0.2289570000        6.6248270000       -0.5031770000
 H       -0.3190510000        5.4238200000       -1.6986760000
 O        0.0344650000       -4.8250640000        0.2839910000
 C       -0.3518340000       -5.6044830000       -0.8570030000
 H       -1.3976950000       -5.4284730000       -1.1145400000
 H       -0.2289570000       -6.6248270000       -0.5031770000
 H        0.3190510000       -5.4238200000       -1.6986760000
