54
 energy:     -1114.4956816100
 N        3.3855420000       -1.9199470000       -0.9044540000
 C        2.6238020000       -3.0169050000       -1.0947460000
 C        1.3034240000       -3.0550850000       -0.7460460000
 C        0.7130960000       -1.9126940000       -0.1941370000
 C        2.8717190000       -0.8009200000       -0.3285800000
 C        1.5140750000       -0.8016100000        0.0001130000
 C       -0.7130950000       -1.9126930000        0.1941370000
 C       -1.3034220000       -3.0550840000        0.7460470000
 C       -2.6238010000       -3.0169040000        1.0947470000
 N       -3.3855400000       -1.9199460000        0.9044540000
 C       -2.8717170000       -0.8009200000        0.3285800000
 C       -1.5140730000       -0.8016090000       -0.0001140000
 H        3.1185670000       -3.8605210000       -1.5561290000
 H        0.7399490000       -3.9574610000       -0.9392820000
 H        1.1261860000        0.0866740000        0.4796830000
 H       -0.7399480000       -3.9574600000        0.9392840000
 H       -3.1185660000       -3.8605190000        1.5561300000
 H       -1.1261850000        0.0866740000       -0.4796840000
 C        4.7695860000       -1.9750810000       -1.4020320000
 H        5.0936790000       -0.9744940000       -1.6713660000
 H        5.4303450000       -2.3791560000       -0.6370810000
 H        4.7903200000       -2.6193670000       -2.2773920000
 C       -4.7695850000       -1.9750790000        1.4020300000
 H       -5.0936780000       -0.9744910000        1.6713620000
 H       -5.4303430000       -2.3791540000        0.6370790000
 H       -4.7903210000       -2.6193640000        2.2773910000
 C        3.7018240000        0.3667810000       -0.0454040000
 C       -3.7018230000        0.3667810000        0.0454040000
 C       -3.2404830000        1.6351060000        0.4108160000
 C       -4.9094110000        0.2642680000       -0.6540260000
 C       -5.6297780000        1.3988020000       -0.9664590000
 C       -3.9850540000        2.7601310000        0.1163340000
 C       -5.1926070000        2.6673230000       -0.5773430000
 H       -5.2670090000       -0.6977800000       -1.0005260000
 H       -6.5492870000        1.3030270000       -1.5317260000
 H       -2.3133860000        1.7378970000        0.9635020000
 H       -3.6256360000        3.7328800000        0.4302640000
 C       -6.0031990000        3.8822200000       -0.8817780000
 H       -5.3921200000        4.7840150000       -0.8843610000
 H       -6.7809640000        4.0146530000       -0.1236800000
 H       -6.5054240000        3.7951700000       -1.8454540000
 C        3.2404840000        1.6351050000       -0.4108200000
 C        4.9094100000        0.2642710000        0.6540300000
 C        5.6297760000        1.3988050000        0.9664630000
 C        5.1926050000        2.6673250000        0.5773430000
 C        3.9850530000        2.7601320000       -0.1163380000
 H        2.3133880000        1.7378940000       -0.9635080000
 H        3.6256350000        3.7328790000       -0.4302710000
 H        5.2670070000       -0.6977760000        1.0005330000
 H        6.5492830000        1.3030330000        1.5317330000
 C        6.0031950000        3.8822240000        0.8817780000
 H        6.5054200000        3.7951740000        1.8454530000
 H        5.3921140000        4.7840180000        0.8843610000
 H        6.7809580000        4.0146580000        0.1236790000
