37
 energy:      -766.9850192560
 C        3.4808510000        0.1013400000        0.0192150000
 C        2.8342650000       -1.1100560000        0.1613940000
 C        2.7624660000        1.2352440000       -0.3052580000
 C        1.4094380000       -1.1107410000        0.0838480000
 N        1.4311850000        1.2446590000       -0.3578420000
 C        0.7158850000        0.1080450000       -0.0532120000
 C        0.6715170000       -2.3247220000        0.0867140000
 C       -0.6715170000       -2.3247230000       -0.0866940000
 C       -1.4094370000       -1.1107420000       -0.0838470000
 C       -0.7158850000        0.1080460000        0.0532100000
 C       -2.8342640000       -1.1100560000       -0.1614000000
 C       -3.4808500000        0.1013400000       -0.0192150000
 C       -2.7624660000        1.2352420000        0.3052600000
 N       -1.4311840000        1.2446590000        0.3578390000
 H        4.5593660000        0.1688280000        0.0741640000
 H        3.2562070000        2.1605950000       -0.5736820000
 H        1.2043600000       -3.2615730000        0.1721840000
 H       -1.2043620000       -3.2615740000       -0.1721450000
 C       -0.7584970000        2.4040940000        0.9860570000
 C       -0.0000010000        3.2632670000       -0.0000060000
 H       -0.0911920000        1.9945440000        1.7461170000
 H       -1.5219740000        2.9767760000        1.5078410000
 C        0.7584970000        2.4040910000       -0.9860640000
 H        0.6725370000        3.9128710000        0.5634730000
 H       -0.6725420000        3.9128660000       -0.5634880000
 H        1.5219760000        2.9767730000       -1.5078480000
 H        0.0911950000        1.9945390000       -1.7461250000
 H       -4.5593650000        0.1688280000       -0.0741680000
 H       -3.2562070000        2.1605930000        0.5736850000
 C       -3.6039150000       -2.3632300000       -0.3652720000
 H       -3.2537280000       -2.9043040000       -1.2477480000
 H       -4.6650070000       -2.1570620000       -0.4856800000
 H       -3.4847990000       -3.0329040000        0.4919340000
 C        3.6039150000       -2.3632310000        0.3652670000
 H        4.6650290000       -2.1570800000        0.4855110000
 H        3.4846560000       -3.0329950000       -0.4918460000
 H        3.2538350000       -2.9041990000        1.2478530000
