31
 energy:      -613.4664129390
 N        3.7815090000        0.0951670000        0.0060050000
 C        3.1864070000       -0.9840310000        0.5369310000
 C        1.8168710000       -1.1135880000        0.5291970000
 C        3.0471770000        1.0758970000       -0.5410430000
 C        1.6735670000        1.0017730000       -0.5684490000
 C        1.0266200000       -0.1093230000       -0.0290490000
 H        3.5912500000        1.9128880000       -0.9580650000
 H        1.1249540000        1.8057250000       -1.0410040000
 H        3.8376310000       -1.7336660000        0.9665230000
 H        1.3815240000       -1.9945060000        0.9822180000
 C       -0.4480420000       -0.2248000000       -0.0525340000
 C       -1.0676260000       -1.4447720000       -0.3223250000
 C       -2.4371060000       -1.5087830000       -0.3387680000
 C       -1.2576560000        0.8763220000        0.1945280000
 C       -2.6422630000        0.7776930000        0.1810850000
 N       -3.1986100000       -0.4276730000       -0.0914470000
 H       -0.8281010000        1.8404920000        0.4326040000
 H       -0.5043230000       -2.3403000000       -0.5475540000
 H       -2.9653280000       -2.4273300000       -0.5541510000
 C       -4.6608540000       -0.5724310000       -0.1203790000
 H       -5.0790470000        0.0831030000       -0.8826960000
 H       -5.0740140000       -0.3115480000        0.8527640000
 H       -4.9082580000       -1.6033630000       -0.3540620000
 C        5.2483730000        0.2199950000        0.0571460000
 H        5.6921220000       -0.7711450000        0.0086820000
 H        5.5322940000        0.7095760000        0.9887000000
 H        5.5852440000        0.8113630000       -0.7903300000
 C       -3.5200940000        1.9407020000        0.4574780000
 H       -2.9222890000        2.8266010000        0.6564280000
 H       -4.1594510000        1.7581100000        1.3252220000
 H       -4.1767590000        2.1536180000       -0.3900880000
