34
 energy:      -652.7593129800
 N       -3.4632330000       -0.4982390000       -0.1242550000
 C       -2.9791480000        0.6986370000        0.2879970000
 C       -1.6048810000        0.8914000000        0.2808060000
 C       -2.6396940000       -1.4829680000       -0.5270160000
 C       -1.2779730000       -1.3252510000       -0.5357240000
 C       -0.7315520000       -0.1093400000       -0.1257780000
 H       -3.1126690000       -2.4012080000       -0.8466980000
 H       -0.6634030000       -2.1421470000       -0.8889420000
 H       -1.2321810000        1.8455030000        0.6294080000
 C        0.7315530000        0.1093420000       -0.1257680000
 C        1.2779780000        1.3252620000       -0.5356810000
 C        2.6396990000        1.4829800000       -0.5269540000
 C        1.6048790000       -0.8914070000        0.2808020000
 C        2.9791450000       -0.6986440000        0.2880110000
 N        3.4632340000        0.4982420000       -0.1242070000
 H        1.2321760000       -1.8455190000        0.6293760000
 H        0.6634110000        2.1421660000       -0.8888870000
 H        3.1126770000        2.4012280000       -0.8466100000
 C        4.9125290000        0.7397960000       -0.1375210000
 H        5.3111970000        0.6336630000        0.8701970000
 H        5.0984000000        1.7476480000       -0.4957650000
 H        5.3976690000        0.0242100000       -0.7995450000
 C       -4.9125280000       -0.7397920000       -0.1375890000
 H       -5.3976700000       -0.0241460000       -0.7995460000
 H       -5.3111940000       -0.6337520000        0.8701400000
 H       -5.0983990000       -1.7476110000       -0.4959250000
 C        3.9229650000       -1.7530580000        0.7325340000
 H        3.3786220000       -2.6456340000        1.0304620000
 H        4.5211660000       -1.4176660000        1.5838050000
 H        4.6185270000       -2.0263300000       -0.0651930000
 C       -3.9229720000        1.7530420000        0.7325310000
 H       -4.5212370000        1.4176110000        1.5837400000
 H       -4.6184750000        2.0263820000       -0.0652260000
 H       -3.3786280000        2.6455880000        1.0305490000
