34
 energy:      -652.7472237260
 N        3.4899640000       -0.1193470000       -0.2946420000
 C        2.7833150000       -0.9181710000       -1.1023290000
 C        1.4064380000       -0.8851140000       -1.0794380000
 C        2.8718670000        0.7254020000        0.5455500000
 C        1.4939010000        0.8184980000        0.6248720000
 C        0.7448250000       -0.0192540000       -0.2171000000
 H        3.5177930000        1.3369920000        1.1624760000
 H        3.3418730000       -1.5732430000       -1.7567720000
 H        0.8614970000       -1.5421600000       -1.7448480000
 C       -0.7448020000        0.0192040000       -0.2171890000
 C       -1.4063260000        0.8844310000       -1.0801570000
 C       -2.7832530000        0.9173610000       -1.1033040000
 C       -1.4939740000       -0.8180880000        0.6252420000
 C       -2.8718800000       -0.7251580000        0.5456210000
 N       -3.4899350000        0.1190140000       -0.2952610000
 H       -0.8613490000        1.5410370000       -1.7459710000
 H       -3.3416880000        1.5719630000       -1.7583040000
 C       -4.9622350000        0.1343840000       -0.3409100000
 H       -5.3505580000        0.1228650000        0.6751010000
 H       -5.3117320000       -0.7433870000       -0.8835820000
 H       -5.2937550000        1.0365830000       -0.8470530000
 C        4.9622310000       -0.1344280000       -0.3414230000
 H        5.2938780000       -1.0445710000       -0.8331190000
 H        5.3515100000       -0.1061920000        0.6738320000
 H        5.3106200000        0.7347230000       -0.8985510000
 H       -3.5179230000       -1.3364030000        1.1627880000
 C        0.8678260000        1.7901550000        1.5710350000
 H        1.6151190000        2.2771020000        2.1948990000
 H        0.1503200000        1.2969770000        2.2297190000
 H        0.3290070000        2.5698630000        1.0276570000
 C       -0.8679360000       -1.7891290000        1.5720590000
 H       -0.3289540000       -2.5690990000        1.0292190000
 H       -1.6152710000       -2.2757830000        2.1961000000
 H       -0.1505750000       -1.2954850000        2.2305530000
