18
 energy:      -534.6888811610
 C       -3.0136320000        0.3595640000       -0.0000500000
 C       -1.9935830000        1.2995040000        0.0000040000
 C       -0.6614370000        0.8961870000        0.0000700000
 C       -2.7155900000       -0.9961360000       -0.0000410000
 C       -1.3925890000       -1.4107970000        0.0000320000
 C       -0.3669860000       -0.4761470000        0.0001030000
 H       -3.5138810000       -1.7278940000       -0.0000850000
 H       -1.1304590000       -2.4617250000        0.0000600000
 H       -4.0461510000        0.6873410000       -0.0001100000
 H       -2.2293510000        2.3576600000       -0.0000230000
 C        1.0428770000       -0.9304050000        0.0002540000
 C        2.1465480000        0.1596480000        0.0000550000
 C        1.7112770000        1.5551370000        0.0000090000
 C        0.4104160000        1.8784280000        0.0000550000
 O        1.3567200000       -2.0926700000       -0.0001840000
 O        3.3070770000       -0.1693180000       -0.0001570000
 H        2.4906580000        2.3074270000       -0.0000760000
 H        0.1149990000        2.9232080000        0.0000130000
