21
 energy:      -573.9881504040
 C       -2.7283400000       -1.3436800000        0.0000460000
 C       -3.1071060000       -0.0055210000        0.0000550000
 C       -1.3873470000       -1.6877010000       -0.0000020000
 C       -0.4165400000       -0.6927210000       -0.0000430000
 C       -0.7980510000        0.6503120000       -0.0000320000
 C       -2.1448130000        0.9900570000        0.0000160000
 H       -3.4844690000       -2.1194230000        0.0000770000
 H       -4.1577050000        0.2586910000        0.0000930000
 H       -1.0681850000       -2.7222950000       -0.0000140000
 H       -2.4126180000        2.0392220000        0.0000220000
 C        1.0175010000       -1.0729640000       -0.0001120000
 C        2.0350550000        0.0163390000       -0.0000140000
 C        1.6419970000        1.2975340000       -0.0000060000
 C        0.2331470000        1.7176620000       -0.0000700000
 H        2.3621580000        2.1090730000        0.0000440000
 O        1.3693940000       -2.2343540000        0.0000220000
 O       -0.0616680000        2.8960680000        0.0000090000
 C        3.4594270000       -0.4097260000        0.0000510000
 H        3.6705570000       -1.0329060000       -0.8716730000
 H        3.6704630000       -1.0329530000        0.8717650000
 H        4.1284080000        0.4493270000        0.0001100000
