42
 energy:     -1049.0741857600
 C        1.7595990000       -3.6581110000        0.1101350000
 C        3.1421450000       -3.5695250000       -0.1838470000
 C        1.0178470000       -2.5277230000        0.2755670000
 C        3.7521660000       -2.3578070000       -0.2955530000
 C        3.0185380000       -1.1517210000       -0.1238530000
 C        1.6192080000       -1.2481010000        0.1591600000
 H        1.2941100000       -4.6314930000        0.2055460000
 H       -0.0379360000       -2.5897990000        0.5077400000
 H        3.7166380000       -4.4787770000       -0.3162350000
 H        4.8082620000       -2.2658510000       -0.5156900000
 C        0.8934050000       -0.0546680000        0.3027680000
 C        1.5713040000        1.1721410000        0.1961250000
 C        2.9781370000        1.1327520000       -0.0777460000
 N        3.6702770000        0.0059860000       -0.2380100000
 C        0.9332280000        2.4308390000        0.3522050000
 C        1.6394750000        3.5894300000        0.2351600000
 C        3.0275670000        3.5558480000       -0.0435220000
 C        3.6742560000        2.3683300000       -0.1939390000
 H        4.7350220000        2.3160910000       -0.4044710000
 H        3.5747910000        4.4866720000       -0.1341730000
 H       -0.1272370000        2.4645390000        0.5683750000
 H        1.1403900000        4.5429330000        0.3573480000
 N       -0.4395650000       -0.1092590000        0.6655660000
 C       -1.4169460000        0.0906440000       -0.1309780000
 C       -2.8132480000       -0.0245020000        0.3855070000
 C       -3.8243510000       -0.0896400000       -0.5261930000
 C       -3.6239170000        0.0431520000       -1.9530310000
 C       -2.2438440000        0.2826420000       -2.4217110000
 C       -1.2268880000        0.3272730000       -1.5630380000
 H       -4.8547280000       -0.2001870000       -0.2198850000
 H       -2.1104060000        0.4131290000       -3.4889570000
 H       -0.2085260000        0.4886510000       -1.8948440000
 O       -4.5463650000        0.0017060000       -2.7528180000
 N       -3.0246120000       -0.1893850000        1.7235950000
 C       -2.3143230000        0.5611540000        2.7421890000
 H       -2.0291980000       -0.0987310000        3.5643720000
 H       -2.9628870000        1.3507800000        3.1417800000
 H       -1.4122220000        1.0078160000        2.3447570000
 C       -4.3284360000       -0.6262410000        2.1555460000
 H       -4.2597280000       -0.9392400000        3.1975240000
 H       -4.6618880000       -1.4755160000        1.5587350000
 H       -5.0857630000        0.1669330000        2.0868520000
