38
 energy:     -1029.6588262400
 C       -1.4297230000        3.6243870000       -0.4608740000
 C       -2.7311860000        3.5639040000        0.0937920000
 C       -0.7472340000        2.4778900000       -0.7356080000
 C       -1.3273060000        1.2104400000       -0.4737310000
 C       -2.6473090000        1.1415120000        0.0747240000
 C       -3.3201000000        2.3641460000        0.3515060000
 H       -0.9806550000        4.5873840000       -0.6712000000
 H        0.2434890000        2.5239040000       -1.1705130000
 H       -3.2614980000        4.4844120000        0.3079320000
 H       -4.3163480000        2.2933700000        0.7697640000
 C       -0.6585690000        0.0001890000       -0.7187130000
 C       -1.3266120000       -1.2105000000       -0.4739650000
 N       -3.2788950000       -0.0006630000        0.3468630000
 C       -2.6466530000       -1.1424230000        0.0745140000
 C       -0.7458370000       -2.4775750000       -0.7360930000
 C       -1.4276760000       -3.6245070000       -0.4615580000
 C       -2.7291630000       -3.5648660000        0.0931400000
 C       -3.3187520000       -2.3654890000        0.3510770000
 H        0.2448980000       -2.5229670000       -1.1710360000
 H       -0.9780690000       -4.5872100000       -0.6720810000
 H       -3.2589440000       -4.4857160000        0.3071280000
 H       -4.3150340000       -2.2953440000        0.7693590000
 N        0.5734950000        0.0006190000       -1.3379000000
 C        1.7361390000        0.0006110000       -0.8192820000
 C        2.0519380000        0.0001970000        0.6329530000
 C        2.8703920000        0.0010440000       -1.7434230000
 C        3.3324160000        0.0000920000        1.0546040000
 C        4.4540680000        0.0004210000        0.1209250000
 C        4.1338120000        0.0009470000       -1.3191970000
 H        2.6071090000        0.0014180000       -2.7941030000
 H        4.9761110000        0.0012430000       -1.9998910000
 H        3.5935770000       -0.0002230000        2.1037080000
 O        5.6090580000        0.0002990000        0.5064410000
 O        0.9765220000       -0.0000140000        1.4112030000
 C        1.1635000000       -0.0004880000        2.8131590000
 H        1.7071710000        0.8925990000        3.1315000000
 H        1.7071700000       -0.8937930000        3.1308880000
 H        0.1673050000       -0.0006370000        3.2469480000
