27
 energy:     -1489.0129157800
 C       -3.3107760000       -1.3727430000       -0.0239620000
 C       -3.6543350000       -0.0488590000        0.2121010000
 C       -1.9992980000       -1.6929000000       -0.3576360000
 C       -1.0280040000       -0.7159900000       -0.4949760000
 C       -1.3866460000        0.6158260000       -0.2652660000
 C       -2.6777240000        0.9397750000        0.1045810000
 H       -4.0411160000       -2.1651160000        0.0578500000
 H       -1.7351910000       -2.7321770000       -0.5238210000
 H       -2.9514030000        1.9691710000        0.2998440000
 N        0.2786420000       -1.0438770000       -0.8723440000
 C        1.3744240000       -0.3333460000       -0.4072980000
 C        1.2709240000        1.0389460000       -0.1549680000
 S       -0.2145020000        1.8984440000       -0.5369340000
 C        2.5947450000       -0.9704890000       -0.2037150000
 C        3.6917890000       -0.2424110000        0.2250650000
 C        3.5970960000        1.1117140000        0.4940770000
 C        2.3723850000        1.7374180000        0.3140150000
 H        2.2751280000        2.7959140000        0.5241390000
 H        4.4596080000        1.6638900000        0.8400360000
 H        0.4395780000       -2.0312800000       -0.9817760000
 H        2.6920770000       -2.0338760000       -0.3865760000
Cl        5.2006430000       -1.0562970000        0.4452480000
 O       -4.8931750000        0.3788460000        0.5534320000
 C       -5.9056060000       -0.5878470000        0.6783920000
 H       -6.0759180000       -1.1162240000       -0.2655310000
 H       -6.8099010000       -0.0490670000        0.9535780000
 H       -5.6707000000       -1.3174710000        1.4604810000
