35
 energy:      -690.8232837400
 C       -3.4755840000       -0.1527680000        0.2994680000
 C       -2.8725870000       -1.2657930000       -0.2868310000
 C       -2.7086520000        0.8961350000        0.7433160000
 N       -1.3704770000        0.8897680000        0.6250910000
 C       -1.4764920000       -1.2400070000       -0.3999430000
 C       -0.7397980000       -0.1673880000        0.0513580000
 C        0.7398020000       -0.1673900000       -0.0513590000
 N        1.3704840000        0.8897690000       -0.6250920000
 C        1.4764950000       -1.2400060000        0.3999440000
 C        2.8725920000       -1.2657900000        0.2868380000
 C        3.4755900000       -0.1527660000       -0.2994570000
 C        2.7086570000        0.8961370000       -0.7433110000
 C       -0.5771670000        2.0255180000        1.1296820000
 C        0.0000020000        2.8668050000       -0.0000010000
 H        0.2100120000        1.6108650000        1.7612640000
 H       -1.2202130000        2.6230550000        1.7722280000
 C        0.5771740000        2.0255180000       -1.1296840000
 H        0.7630380000        3.5181410000        0.4310160000
 H       -0.7630340000        3.5181400000       -0.4310190000
 H        1.2202200000        2.6230550000       -1.7722300000
 H       -0.2100050000        1.6108640000       -1.7612670000
 H        0.9573850000       -2.0666860000        0.8683200000
 H        4.5505570000       -0.0970300000       -0.4168800000
 H        3.1415960000        1.7690330000       -1.2143390000
 H       -0.9573840000       -2.0666890000       -0.8683150000
 H       -4.5505510000       -0.0970360000        0.4169010000
 H       -3.1415890000        1.7690310000        1.2143470000
 C        3.6697100000       -2.4264530000        0.7542050000
 H        3.1176190000       -3.0490190000        1.4559610000
 H        4.6043670000       -2.1033920000        1.2141730000
 H        3.9404770000       -3.0493640000       -0.1057380000
 C       -3.6697260000       -2.4264350000       -0.7542140000
 H       -3.9412060000       -3.0489260000        0.1058040000
 H       -3.1174070000       -3.0494130000       -1.4554200000
 H       -4.6040230000       -2.1032780000       -1.2148590000
