30
 energy:      -758.4549335150
 N       -3.5039670000       -0.5430610000       -0.2727750000
 C       -2.8037740000       -1.6294310000       -0.6199370000
 C       -1.4287460000       -1.6652820000       -0.5202490000
 C       -2.8599970000        0.5580100000        0.1867860000
 C       -1.4810180000        0.5755800000        0.2976680000
 C       -0.7382740000       -0.5483040000       -0.0570430000
 H       -1.0178950000        1.4725970000        0.6878670000
 H       -3.3747810000       -2.4725060000       -0.9852880000
 H       -0.9171170000       -2.5654300000       -0.8348500000
 C        0.7382740000       -0.5483040000        0.0570440000
 C        1.4287460000       -1.6652810000        0.5202520000
 C        2.8037730000       -1.6294320000        0.6199350000
 C        1.4810180000        0.5755790000       -0.2976700000
 C        2.8599970000        0.5580080000       -0.1867910000
 N        3.5039670000       -0.5430640000        0.2727680000
 H        1.0178950000        1.4725960000       -0.6878690000
 H        0.9171160000       -2.5654280000        0.8348560000
 H        3.3747820000       -2.4725080000        0.9852830000
 C        4.9737420000       -0.5353000000        0.3871210000
 H        5.4070830000       -0.3562290000       -0.5965290000
 H        5.2998990000       -1.4980530000        0.7687650000
 H        5.2744510000        0.2592940000        1.0694670000
 C       -4.9737430000       -0.5353030000       -0.3871130000
 H       -5.2998790000       -1.4979610000       -0.7690140000
 H       -5.2744800000        0.2594650000       -1.0692420000
 H       -5.4070780000       -0.3565060000        0.5965910000
 C        3.6407760000        1.6882860000       -0.5519460000
 C       -3.6407770000        1.6882890000        0.5519350000
 N       -4.2550970000        2.6143470000        0.8513320000
 N        4.2551000000        2.6143470000       -0.8513240000
