38
 energy:      -730.1242655420
 C        3.5216710000       -0.0661060000       -0.0889670000
 C        2.8771320000        1.1592940000        0.1757820000
 C        1.4842660000        1.1762940000        0.2161150000
 C        2.7278910000       -1.1784520000       -0.2763070000
 N        1.3859340000       -1.1274400000       -0.2297400000
 C        0.7350190000        0.0366110000       -0.0016670000
 C       -0.7350190000        0.0366110000        0.0016670000
 N       -1.3859340000       -1.1274390000        0.2297410000
 C        0.5946530000       -2.3422030000       -0.4623960000
 C       -0.5946530000       -2.3422030000        0.4624000000
 H        1.2217250000       -3.2094100000       -0.2650700000
 H        0.2868210000       -2.3662410000       -1.5107070000
 H       -0.2868210000       -2.3662390000        1.5107100000
 H       -1.2217250000       -3.2094100000        0.2650750000
 C       -1.4842660000        1.1762940000       -0.2161170000
 C       -2.8771320000        1.1592940000       -0.1757840000
 C       -3.5216710000       -0.0661060000        0.0889670000
 C       -2.7278910000       -1.1784520000        0.2763090000
 H        3.1544710000       -2.1544670000       -0.4697360000
 H       -3.1544710000       -2.1544660000        0.4697390000
 C       -3.6601600000        2.3964190000       -0.4142700000
 H       -3.0231290000        3.2555150000       -0.6120650000
 H       -4.2918180000        2.6206560000        0.4503200000
 H       -4.3395330000        2.2623150000       -1.2610830000
 C       -5.0037020000       -0.1842320000        0.1531720000
 H       -5.4576640000        0.1268490000       -0.7911480000
 H       -5.4088300000        0.4703000000        0.9290650000
 H       -5.3223690000       -1.2029240000        0.3659300000
 C        3.6601600000        2.3964200000        0.4142660000
 H        3.0231290000        3.2555170000        0.6120560000
 H        4.2918230000        2.6206520000       -0.4503220000
 H        4.3395290000        2.2623190000        1.2610830000
 C        5.0037020000       -0.1842330000       -0.1531710000
 H        5.3223690000       -1.2029260000       -0.3659240000
 H        5.4576650000        0.1268540000        0.7911460000
 H        5.4088290000        0.4702950000       -0.9290690000
 H        0.9777070000        2.1037290000        0.4451590000
 H       -0.9777070000        2.1037280000       -0.4451630000
