30
 energy:      -650.3410776630
 C        3.3942790000        0.8245930000       -0.0000000000
 C        2.3841300000        1.7373240000        0.0000000000
 C        1.0466380000        1.3061480000        0.0000000000
 C        0.7779120000       -0.0804570000       -0.0000000000
 N        3.1195910000       -0.5047350000       -0.0000000000
 C        1.8685560000       -0.9509090000       -0.0000000000
 C       -0.0333750000        2.2317550000        0.0000000000
 C       -1.3187300000        1.8049750000        0.0000000000
 C       -1.6206550000        0.4143290000       -0.0000000000
 C       -0.5912110000       -0.5500590000       -0.0000000000
 N       -2.9273270000       -0.0013580000       -0.0000000000
 C       -0.9444560000       -1.9068850000       -0.0000000000
 C       -2.2658670000       -2.2790890000       -0.0000000000
 C       -3.2400190000       -1.2958520000       -0.0000000000
 H        4.4410820000        1.0970890000       -0.0000000000
 H        2.6236460000        2.7929860000        0.0000000000
 H        1.7623340000       -2.0258460000       -0.0000000000
 H        0.1840850000        3.2929800000        0.0000000000
 H       -2.1154130000        2.5346480000        0.0000000000
 H       -0.1893670000       -2.6817210000       -0.0000000000
 H       -2.5650120000       -3.3183750000       -0.0000000000
 H       -4.2945890000       -1.5371720000       -0.0000000000
 C       -4.0223330000        0.9832240000       -0.0000000000
 H       -3.9637720000        1.6011150000       -0.8947470000
 H       -3.9637720000        1.6011150000        0.8947470000
 H       -4.9667300000        0.4477440000       -0.0000000000
 C        4.2515320000       -1.4463640000        0.0000010000
 H        4.8535800000       -1.2763900000       -0.8915710000
 H        3.8761090000       -2.4655080000       -0.0000090000
 H        4.8535680000       -1.2764020000        0.8915830000
