23
 energy:     -3488.3634879100
 C       -4.9552730000        0.5670950000       -0.6474050000
 C       -4.8723220000       -0.8148640000       -0.7068730000
 C       -3.8628530000        1.3142300000       -0.2361660000
 C       -2.6833760000        0.6890830000        0.1546680000
 C       -2.6082380000       -0.7048870000        0.1101450000
 C       -3.6911820000       -1.4443590000       -0.3415970000
 H       -5.8692550000        1.0725710000       -0.9337840000
 H       -3.9229620000        2.3973560000       -0.2090630000
 H       -5.7180350000       -1.4034190000       -1.0385940000
 H       -3.6083600000       -2.5237880000       -0.3884830000
 N       -1.5958580000        1.4384410000        0.5966140000
 C       -0.2833240000        1.0355170000        0.3781160000
 C        0.0453130000       -0.3230010000        0.3591240000
 S       -1.1797700000       -1.5299570000        0.7233450000
 C        0.7276650000        1.9721640000        0.1926070000
 C        2.0437650000        1.5791480000        0.0095160000
 C        2.3473950000        0.2299850000       -0.0239320000
 C        1.3539060000       -0.7232200000        0.1336130000
 H        0.4828220000        3.0290160000        0.2005800000
 H        2.8216610000        2.3195480000       -0.1182640000
 H        1.5953240000       -1.7776530000        0.0999720000
 H       -1.7361120000        2.4342500000        0.5544700000
Br        4.1323830000       -0.3256860000       -0.2916440000
