23
 energy:     -1014.2937147700
 C       -3.9290460000        0.8366140000       -0.4642020000
 C       -3.9661010000       -0.5425810000       -0.5947830000
 C       -2.7580170000        1.4700040000       -0.0794880000
 C       -1.6159270000        0.7318240000        0.2148160000
 C       -1.6616760000       -0.6596570000        0.0989090000
 C       -2.8245940000       -1.2841540000       -0.3267390000
 H       -4.8109510000        1.4291000000       -0.6744480000
 H       -2.7257140000        2.5515160000        0.0031070000
 H       -4.8743290000       -1.0420480000       -0.9067470000
 H       -2.8351480000       -2.3628250000       -0.4299030000
 N       -0.4487690000        1.3623580000        0.6351720000
 C        0.8129610000        0.8660040000        0.3072860000
 C        1.0239370000       -0.5118790000        0.2090090000
 S       -0.2775360000       -1.6292240000        0.5911020000
 C        1.8831260000        1.7267290000        0.0927690000
 C        3.1499800000        1.2400130000       -0.1928060000
 C        3.3252390000       -0.1236220000       -0.2961230000
 C        2.2787650000       -1.0067900000       -0.1157840000
 H        1.7257100000        2.7978240000        0.1602690000
 H        3.9878000000        1.9070400000       -0.3456990000
 H        2.4474970000       -2.0716650000       -0.2123470000
 H       -0.5054510000        2.3672030000        0.6454010000
 F        4.5400740000       -0.6111220000       -0.5845160000
