25
 energy:     -1119.4905890500
 C       -4.5663410000        0.6692070000       -0.5538650000
 C       -4.5296390000       -0.7139710000       -0.6232640000
 C       -3.4339300000        1.3775150000       -0.1838980000
 C       -2.2616840000        0.7104580000        0.1518740000
 C       -2.2306200000       -0.6835540000        0.0969860000
 C       -3.3557440000       -1.3842920000       -0.3113060000
 H       -5.4745130000        1.2055220000       -0.7988970000
 H       -3.4569990000        2.4617550000       -0.1484340000
 H       -5.4069270000       -1.2731610000       -0.9219690000
 H       -3.3109440000       -2.4654500000       -0.3674190000
 N       -1.1322790000        1.4306970000        0.5409430000
 C        0.1567760000        0.9919220000        0.3309310000
 C        0.4434930000       -0.3814550000        0.2816780000
 S       -0.8074580000       -1.5628510000        0.6406470000
 C        1.1969740000        1.9103760000        0.1796440000
 C        2.4958530000        1.4862200000       -0.0123220000
 C        2.7512510000        0.1281270000       -0.0826450000
 C        1.7361140000       -0.8079210000        0.0481630000
 H        0.9767830000        2.9714380000        0.2181900000
 H        3.3096330000        2.1886510000       -0.1216120000
 H        1.9736470000       -1.8612890000       -0.0118560000
 H       -1.2475210000        2.4304970000        0.5282870000
 N        4.1139430000       -0.3320520000       -0.3030180000
 O        4.9814620000        0.5104000000       -0.4167860000
 O        4.3022270000       -1.5302330000       -0.3612100000
