36
 energy:      -765.9745127790
 C       -4.9557400000       -0.0429500000        0.2551740000
 C       -4.4704820000        1.2428210000        0.0622890000
 C       -3.1052520000        1.4511020000       -0.0516370000
 C       -4.0587230000       -1.0824680000        0.3173220000
 N       -2.7372190000       -0.8632080000        0.2087690000
 C       -2.2270500000        0.3825440000        0.0376170000
 C       -0.7737380000        0.5487550000       -0.0423970000
 N       -0.0028920000       -0.5049800000       -0.3922370000
 C       -1.7951740000       -1.9855700000        0.3118950000
 C       -0.6718050000       -1.7860870000       -0.6713260000
 C       -0.1401220000        1.7612830000        0.2170890000
 C        1.2202100000        1.8873210000        0.0878500000
 C        1.9985660000        0.7884390000       -0.3148190000
 C        1.3269920000       -0.4223430000       -0.5314880000
 H       -6.0143740000       -0.2471350000        0.3448620000
 H       -2.7235510000        2.4458150000       -0.2328860000
 H       -0.7228600000        2.6105150000        0.5454140000
 H        1.7181450000        2.8273850000        0.2937180000
 H       -5.1522970000        2.0816240000       -0.0100070000
 H       -4.3632860000       -2.1120810000        0.4533680000
 H        1.8360950000       -1.3326930000       -0.8101330000
 H        0.0557690000       -2.5889700000       -0.5722280000
 H       -1.0347870000       -1.7691860000       -1.7019610000
 H       -2.3261830000       -2.9091200000        0.0891450000
 H       -1.4249830000       -2.0351520000        1.3390860000
 O        3.2778080000        0.9722100000       -0.4516730000
 C        4.1715970000       -0.0956080000       -0.8740710000
 C        4.5859460000       -0.9819190000        0.2770070000
 H        5.0239130000        0.4449670000       -1.2820570000
 H        3.6967990000       -0.6419800000       -1.6938670000
 C        5.3587810000       -0.2510270000        1.3623290000
 H        3.7122500000       -1.4874760000        0.7056800000
 H        5.2036520000       -1.7737510000       -0.1576520000
 H        5.6609880000       -0.9424890000        2.1481450000
 H        4.7651560000        0.5389290000        1.8250320000
 H        6.2638290000        0.2046750000        0.9570040000
