32
 energy:      -651.5378178960
 C        3.5311850000       -0.2880980000       -0.0129050000
 C        2.8592940000       -1.4884920000       -0.2514500000
 C        1.4771960000       -1.5400910000       -0.2580540000
 C        2.7387200000        0.8284170000        0.1964710000
 N        1.3976050000        0.7658420000        0.1873000000
 C        0.7339030000       -0.3957160000       -0.0202580000
 C       -0.7339030000       -0.3957160000        0.0202580000
 N       -1.3976050000        0.7658420000       -0.1873000000
 C        0.6082340000        1.9796660000        0.4443250000
 C       -0.6082340000        1.9796650000       -0.4443250000
 H        1.2263700000        2.8493410000        0.2303180000
 H        0.3341640000        1.9986560000        1.5021120000
 H       -0.3341640000        1.9986560000       -1.5021120000
 H       -1.2263700000        2.8493410000       -0.2303190000
 C       -1.4771960000       -1.5400910000        0.2580540000
 C       -2.8592940000       -1.4884920000        0.2514500000
 C       -3.5311850000       -0.2880990000        0.0129050000
 C       -2.7387200000        0.8284170000       -0.1964710000
 H        3.1645280000        1.8075150000        0.3759910000
 H       -3.1645280000        1.8075150000       -0.3759910000
 H        0.9745480000       -2.4732130000       -0.4706630000
 H       -0.9745480000       -2.4732130000        0.4706630000
 H       -3.4261410000       -2.3928860000        0.4425230000
 H        3.4261410000       -2.3928860000       -0.4425230000
 C       -5.0163540000       -0.1944890000       -0.0041710000
 H       -5.4289950000       -0.5252800000        0.9518160000
 H       -5.4274120000       -0.8514560000       -0.7744370000
 H       -5.3626290000        0.8192530000       -0.1966820000
 C        5.0163540000       -0.1944890000        0.0041710000
 H        5.3626290000        0.8192550000        0.1966730000
 H        5.4289960000       -0.5252910000       -0.9518110000
 H        5.4274110000       -0.8514470000        0.7744450000
