35
 energy:      -690.8185704860
 C        3.5316590000       -0.4768180000        0.0526610000
 C        2.8204380000       -1.5660850000        0.5530510000
 C        2.7797660000        0.5720260000       -0.4548810000
 N        1.4377710000        0.5586590000       -0.4689620000
 C        1.4348910000       -1.5710700000        0.5389980000
 C        0.7389500000       -0.4924190000        0.0264960000
 C       -0.7389500000       -0.4924190000       -0.0264970000
 N       -1.4377700000        0.5586590000        0.4689620000
 C       -1.4348910000       -1.5710690000       -0.5389980000
 C       -2.8204380000       -1.5660840000       -0.5530520000
 C       -3.5316590000       -0.4768170000       -0.0526610000
 C       -2.7797650000        0.5720260000        0.4548810000
 C        0.7029630000        1.6956070000       -1.0574300000
 C        0.0000000000        2.5343910000       -0.0000000000
 H       -0.0072340000        1.2775920000       -1.7725140000
 H        1.4119150000        2.2958680000       -1.6231960000
 C       -0.7029630000        1.6956080000        1.0574290000
 H       -0.7081820000        3.1858770000       -0.5160340000
 H        0.7081820000        3.1858770000        0.5160330000
 H       -1.4119150000        2.2958680000        1.6231960000
 H        0.0072340000        1.2775920000        1.7725140000
 H       -0.8844970000       -2.4099590000       -0.9447360000
 H       -3.3535440000       -2.4172440000       -0.9618810000
 H       -3.2462210000        1.4522040000        0.8785290000
 H        0.8844970000       -2.4099590000        0.9447350000
 H        3.3535440000       -2.4172450000        0.9618790000
 H        3.2462210000        1.4522030000       -0.8785300000
 C        5.0201290000       -0.4289530000        0.0470390000
 H        5.4083760000       -0.5414880000        1.0617150000
 H        5.3996350000        0.5042710000       -0.3651000000
 H        5.4234020000       -1.2546410000       -0.5438820000
 C       -5.0201290000       -0.4289540000       -0.0470370000
 H       -5.4083800000       -0.5415290000       -1.0617070000
 H       -5.3996350000        0.5042860000        0.3650680000
 H       -5.4233990000       -1.2546180000        0.5439190000
