29
 energy:      -993.6671714300
 C        1.1090590000        0.3183970000        3.5480410000
 C       -0.2723610000        0.3577970000        3.6873170000
 C        1.7004830000        0.0207770000        2.3297230000
 C        0.9251620000       -0.2809000000        1.2172620000
 C       -0.4654130000       -0.2556130000        1.3482980000
 C       -1.0443550000        0.0828580000        2.5610610000
 H        1.7401080000        0.5380400000        4.4019390000
 H        2.7820840000        0.0165620000        2.2403550000
 H       -2.1266670000        0.1170980000        2.6293430000
 N        1.5142590000       -0.6146230000       -0.0000000000
 C        0.9251620000       -0.2809000000       -1.2172620000
 C       -0.4654130000       -0.2556130000       -1.3482980000
 S       -1.4838950000       -0.7462190000        0.0000000000
 C        1.7004830000        0.0207770000       -2.3297230000
 C        1.1090590000        0.3183970000       -3.5480410000
 C       -0.2723610000        0.3577970000       -3.6873170000
 C       -1.0443550000        0.0828580000       -2.5610610000
 H        2.7820840000        0.0165620000       -2.2403550000
 H        1.7401080000        0.5380400000       -4.4019390000
 H       -2.1266670000        0.1170980000       -2.6293430000
 H        2.5190650000       -0.5558400000       -0.0000000000
 C       -0.9201200000        0.6699310000       -5.0027250000
 H       -0.2105010000        1.1274940000       -5.6930320000
 H       -1.7612140000        1.3553680000       -4.8805930000
 H       -1.3068250000       -0.2352000000       -5.4797640000
 C       -0.9201200000        0.6699310000        5.0027250000
 H       -0.2105010000        1.1274940000        5.6930320000
 H       -1.3068250000       -0.2352000000        5.4797640000
 H       -1.7612140000        1.3553680000        4.8805930000
