31
 energy:     -1143.9879795100
 C        1.1128070000        0.2162460000        3.5544890000
 C       -0.2698840000        0.2461130000        3.6699500000
 C        1.6937280000       -0.0850930000        2.3273860000
 C        0.9256280000       -0.3932540000        1.2163140000
 C       -0.4673860000       -0.3707370000        1.3475320000
 C       -1.0538470000       -0.0336130000        2.5526240000
 H        1.7510650000        0.4352630000        4.3987940000
 H        2.7755580000       -0.0899870000        2.2422410000
 H       -2.1320790000        0.0013940000        2.6476350000
 N        1.5126160000       -0.7460210000       -0.0000000000
 C        0.9256280000       -0.3932540000       -1.2163140000
 C       -0.4673860000       -0.3707370000       -1.3475320000
 S       -1.4849180000       -0.8628480000        0.0000000000
 C        1.6937280000       -0.0850930000       -2.3273860000
 C        1.1128070000        0.2162460000       -3.5544890000
 C       -0.2698840000        0.2461130000       -3.6699500000
 C       -1.0538470000       -0.0336130000       -2.5526240000
 H        2.7755580000       -0.0899870000       -2.2422410000
 H        1.7510650000        0.4352630000       -4.3987940000
 H       -2.1320790000        0.0013940000       -2.6476350000
 H        2.5172320000       -0.6852880000       -0.0000000000
 O       -0.9449660000        0.5381670000       -4.8092650000
 C       -0.1890520000        0.8317700000       -5.9559880000
 H        0.4415260000        1.7149840000       -5.8077970000
 H       -0.9044990000        1.0343370000       -6.7504660000
 H        0.4427630000       -0.0134100000       -6.2494270000
 O       -0.9449660000        0.5381670000        4.8092650000
 C       -0.1890520000        0.8317700000        5.9559880000
 H        0.4427630000       -0.0134100000        6.2494270000
 H       -0.9044990000        1.0343370000        6.7504660000
 H        0.4415260000        1.7149840000        5.8077970000
