36
 energy:      -878.8137341600
 C        2.4589260000        5.1193600000        0.0000000000
 C        1.1531940000        4.7569780000        0.0000000000
 N        0.7847450000        3.4318250000        0.0000000000
 C        1.7465800000        2.4389180000        0.0000000000
 C        3.4625790000        4.1320190000        0.0000000000
 C        3.1015620000        2.8161240000        0.0000000000
 C       -0.5370600000        3.1011820000        0.0000000000
 C       -0.9660130000        1.8017660000        0.0000000000
 C       -0.0000000000        0.7466250000        0.0000000000
 C        1.3270130000        1.1007350000        0.0000000000
 C       -2.3750700000        1.5116290000        0.0000000000
 C       -2.8197100000        0.2432780000        0.0000000000
 C       -1.9049400000       -0.8632770000        0.0000000000
 C       -0.4922470000       -0.6298270000        0.0000000000
 C       -2.3537740000       -2.1647070000        0.0000000000
 C        0.3438750000       -1.7101540000        0.0000000000
 N       -0.1169230000       -2.9948690000        0.0000000000
 C       -1.4771720000       -3.2522760000        0.0000000000
 C       -1.9101590000       -4.5919860000        0.0000000000
 C       -1.0120350000       -5.6174290000        0.0000000000
 C        0.7843720000       -4.0361000000        0.0000000000
 C        0.3667330000       -5.3237450000        0.0000000000
 H        2.7088380000        6.1718990000        0.0000000000
 H        0.3381600000        5.4667630000        0.0000000000
 H        4.5065770000        4.4174750000        0.0000000000
 H        3.8456370000        2.0306400000        0.0000000000
 H       -3.0748080000        2.3385390000        0.0000000000
 H       -3.8820290000        0.0330730000        0.0000000000
 H       -1.2280020000        3.9330770000        0.0000000000
 H        2.1181440000        0.3636290000        0.0000000000
 H        1.4204060000       -1.6262010000        0.0000000000
 H       -3.4154040000       -2.3766310000        0.0000000000
 H       -2.9765340000       -4.7754370000        0.0000000000
 H       -1.3489570000       -6.6460260000        0.0000000000
 H        1.8267230000       -3.7512470000        0.0000000000
 H        1.1065830000       -6.1129120000        0.0000000000
