34
 energy:      -727.6714637700
 C        3.4756490000       -0.4825570000       -0.2860830000
 C        2.7770830000       -1.6588150000       -0.3884130000
 C        2.7967510000        0.6424350000        0.1543570000
 N        1.4738620000        0.6595790000        0.3287270000
 C        1.3829810000       -1.6708940000       -0.1982130000
 C        0.7166410000       -0.4443430000        0.0182210000
 C        0.6587460000       -2.8960100000       -0.1518010000
 C       -0.6587460000       -2.8960100000        0.1518010000
 C       -1.3829810000       -1.6708940000        0.1982130000
 C       -0.7166410000       -0.4443430000       -0.0182210000
 C       -2.7770830000       -1.6588150000        0.3884130000
 C       -3.4756490000       -0.4825560000        0.2860840000
 C       -2.7967510000        0.6424360000       -0.1543570000
 N       -1.4738620000        0.6595790000       -0.3287270000
 C        0.9392740000        1.7978900000        1.1419640000
 C       -0.9392740000        1.7978900000       -1.1419640000
 C        0.6664030000        3.0683530000        0.3618320000
 H        1.6981410000        1.9724590000        1.9030190000
 H        0.0547970000        1.4324760000        1.6626180000
 C       -0.6664030000        3.0683530000       -0.3618320000
 H       -1.6981410000        1.9724600000       -1.9030190000
 H       -0.0547970000        1.4324760000       -1.6626190000
 H        1.4857270000        3.2477030000       -0.3404480000
 H        0.6944360000        3.8975100000        1.0712670000
 H       -1.4857260000        3.2477030000        0.3404480000
 H       -0.6944360000        3.8975100000       -1.0712670000
 H        3.2903110000       -2.5910690000       -0.5955950000
 H        4.5459300000       -0.4332090000       -0.4351270000
 H        3.3230830000        1.5436860000        0.4433360000
 H       -3.2903120000       -2.5910680000        0.5955950000
 H       -3.3230830000        1.5436860000       -0.4433360000
 H       -4.5459300000       -0.4332090000        0.4351270000
 H        1.1997590000       -3.8229740000       -0.2968690000
 H       -1.1997600000       -3.8229740000        0.2968690000
