28
 energy:      -574.1574176820
 C        3.8656910000       -0.4403030000       -0.1582100000
 C        3.0892100000       -1.5591080000       -0.4024440000
 C        3.2403510000        0.7448650000        0.1575480000
 N        1.9005160000        0.8443390000        0.2165270000
 C        1.7063920000       -1.4475270000       -0.3346290000
 C        1.1172770000       -0.2345070000       -0.0360600000
 C       -0.3658640000       -0.1228710000       -0.0101890000
 C       -1.0986340000       -0.8708930000        0.9075570000
 C       -1.0644540000        0.6433900000       -0.9419230000
 C       -2.4410070000        0.6433900000       -0.9275540000
 C       -2.4763300000       -0.8270450000        0.8793290000
 N       -3.1237970000       -0.0802330000       -0.0260350000
 C       -4.5981350000       -0.0828800000       -0.0641840000
 H       -4.9791970000       -0.3489790000        0.9181040000
 H       -4.9321310000       -0.8117000000       -0.8027500000
 H       -4.9486570000        0.9099340000       -0.3358560000
 H       -3.0280910000        1.2116670000       -1.6372330000
 H       -0.5585450000        1.2230440000       -1.7029390000
 H       -0.6136080000       -1.4855650000        1.6549900000
 H       -3.0874060000       -1.3858190000        1.5759670000
 H        4.9464940000       -0.4737610000       -0.1971070000
 H        3.7932730000        1.6472970000        0.3816900000
 H        3.5479350000       -2.5104910000       -0.6435050000
 H        1.0744380000       -2.3031800000       -0.5340780000
 C        1.3222850000        2.1476240000        0.5869300000
 H        2.0787060000        2.7249500000        1.1111240000
 H        0.4725000000        1.9995710000        1.2481440000
 H        1.0165560000        2.6894710000       -0.3070290000
