35
 energy:      -819.8672486860
 C       -4.7356970000       -1.1685700000       -0.1597460000
 C       -4.6644230000        0.0848880000       -0.7486240000
 C       -3.4728540000        0.7942060000       -0.7108700000
 C       -3.6079600000       -1.6831240000        0.4381740000
 N       -2.4650200000       -0.9812480000        0.4654910000
 C       -2.3663070000        0.2528210000       -0.0798270000
 C       -1.0836730000        0.9697040000        0.0220660000
 N        0.0749560000        0.2522890000        0.1040760000
 C       -1.2607350000       -1.5225750000        1.1047580000
 C       -0.0581060000       -1.2093190000        0.2524180000
 H       -1.3712290000       -2.6009480000        1.2009450000
 H       -1.1757880000       -1.0906210000        2.1051640000
 H       -0.1161350000       -1.6669970000       -0.7354390000
 H        0.8370520000       -1.5898240000        0.7340180000
 C       -1.0486810000        2.3452660000        0.0242190000
 C        0.1770550000        2.9984800000        0.0861860000
 C        1.3331290000        2.2542800000        0.1017620000
 C        1.2891570000        0.8602000000        0.0905750000
 H       -5.6460580000       -1.7531220000       -0.1701500000
 H       -3.5830750000       -2.6589050000        0.9056190000
 H        2.3011170000        2.7355280000        0.0856360000
 H       -3.3978600000        1.7579470000       -1.1946590000
 H       -1.9702370000        2.9092100000        0.0011270000
 H       -5.5292410000        0.5080140000       -1.2452790000
 H        0.2181040000        4.0807330000        0.0975280000
 C        2.5328120000        0.0789390000       -0.0095580000
 N        2.4840900000       -0.9867050000       -0.8144690000
 C        3.6904430000        0.5051580000        0.6342790000
 C        3.6089010000       -1.6517890000       -1.0269430000
 C        4.8197830000       -1.3039760000       -0.4317510000
 C        4.8559010000       -0.2165880000        0.4222270000
 H        3.5486420000       -2.4987980000       -1.7014260000
 H        5.7102460000       -1.8840040000       -0.6374150000
 H        5.7759220000        0.0732010000        0.9140130000
 H        3.6878740000        1.3602410000        1.2985660000
