26
 energy:     -3146.2043246700
 C       -4.4858880000       -0.6824190000       -0.1698650000
 C       -4.2706670000        0.6416460000       -0.5183990000
 C       -2.9882590000        1.1690810000       -0.4506070000
 C       -3.4089580000       -1.4467370000        0.2207790000
 N       -2.1766240000       -0.9196390000        0.2801800000
 C       -1.9350930000        0.3772420000       -0.0280220000
 C       -0.5616770000        0.8967520000        0.0990900000
 N        0.4878640000        0.0249820000        0.0046040000
 C       -1.0358160000       -1.7397190000        0.7064630000
 C        0.1664960000       -1.4059490000       -0.1359270000
 H       -1.2928540000       -2.7897080000        0.5790690000
 H       -0.8490550000       -1.5540280000        1.7672310000
 H        0.0042460000       -1.6273410000       -1.1938870000
 H        1.0189230000       -1.9875460000        0.2064790000
 C       -0.3222010000        2.2381280000        0.2929620000
 C        0.9866620000        2.7058160000        0.3531380000
 C        2.0323620000        1.8218200000        0.2068870000
 C        1.7665210000        0.4700330000        0.0278520000
 H       -5.4696200000       -1.1315320000       -0.2105770000
 H       -3.4980990000       -2.4910420000        0.4915260000
 H       -5.0931720000        1.2634350000       -0.8512870000
 H       -2.8079200000        2.1917750000       -0.7506430000
 H       -1.1496240000        2.9217490000        0.4186970000
 H        1.1822220000        3.7597170000        0.5115210000
 H        3.0624050000        2.1513400000        0.2338190000
Br        3.1729420000       -0.7062400000       -0.1949010000
