27
 energy:     -1489.0109677300
 C       -3.3738240000        1.0517750000        0.1061360000
 C       -3.3552600000       -0.3357530000        0.1227200000
 C       -2.1897250000        1.7516070000       -0.0998770000
 C       -0.9911320000        1.0959680000       -0.3237570000
 C       -0.9844210000       -0.3009250000       -0.3155690000
 C       -2.1482670000       -1.0048740000       -0.0730700000
 H       -4.2904840000        1.6026870000        0.2616880000
 H       -2.2094900000        2.8365310000       -0.0955360000
 H       -2.1399950000       -2.0875300000       -0.0472410000
 N        0.1863770000        1.8048460000       -0.5720630000
 C        1.4319360000        1.3363600000       -0.1809770000
 C        1.6954870000       -0.0399150000       -0.1654820000
 S        0.4821130000       -1.1955300000       -0.6941220000
 C        2.4380620000        2.2324380000        0.1671580000
 C        3.7013070000        1.7779570000        0.5051970000
 C        3.9772330000        0.4228910000        0.5257240000
 C        2.9672560000       -0.4702550000        0.1986870000
 H        2.2241560000        3.2956700000        0.1606050000
 H        4.4773500000        2.4885430000        0.7607700000
 H        4.9573830000        0.0482720000        0.7857570000
 H        0.0868040000        2.8043020000       -0.5108370000
Cl        3.3219060000       -2.1596610000        0.2021790000
 O       -4.4403400000       -1.1209540000        0.3244190000
 C       -5.6758090000       -0.4848550000        0.5323890000
 H       -6.4079530000       -1.2775370000        0.6717620000
 H       -5.9655800000        0.1234230000       -0.3309430000
 H       -5.6573690000        0.1475540000        1.4262900000
