32
 energy:      -651.5260654970
 C       -4.1390570000       -0.3244310000       -0.1516490000
 C       -3.7609920000        0.9725290000       -0.4631440000
 C       -2.4213540000        1.3295120000       -0.4046680000
 C       -3.1631870000       -1.2318080000        0.1928780000
 N       -1.8724070000       -0.8677620000        0.2441590000
 C       -1.4706370000        0.3968820000       -0.0274700000
 C       -0.0404940000        0.7319030000        0.0913310000
 N        0.8900700000       -0.2566800000       -0.0444550000
 C       -0.8397630000       -1.8404810000        0.6195990000
 C        0.3834890000       -1.6257190000       -0.2328740000
 H       -1.2307700000       -2.8436950000        0.4606200000
 H       -0.6157740000       -1.7187090000        1.6824560000
 H        0.1704900000       -1.7819330000       -1.2937310000
 H        1.1490020000       -2.3338140000        0.0683080000
 C        0.3673740000        2.0268430000        0.3193920000
 C        1.7250720000        2.3156280000        0.3675680000
 C        2.6410870000        1.3040030000        0.1769360000
 C        2.2249030000       -0.0064490000       -0.0315630000
 H       -5.1727080000       -0.6425380000       -0.1867390000
 H       -3.3803350000       -2.2648710000        0.4321250000
 H        3.7014840000        1.5101390000        0.1940020000
 H       -2.1158490000        2.3302610000       -0.6754840000
 H       -0.3638540000        2.8063040000        0.4786540000
 H       -4.5023640000        1.7047380000       -0.7599080000
 H        2.0580730000        3.3301210000        0.5510240000
 C        3.1913310000       -1.1292750000       -0.2456990000
 C        4.6524940000       -0.7200400000       -0.3277280000
 H        2.9087590000       -1.6597800000       -1.1619040000
 H        3.0682800000       -1.8513010000        0.5720660000
 H        4.8365660000       -0.0264950000       -1.1493100000
 H        5.2568070000       -1.6074350000       -0.5101190000
 H        5.0069540000       -0.2744850000        0.6025660000
