32
 energy:      -651.5376343520
 C       -3.4773690000        0.6708970000       -0.1894990000
 C       -2.8077600000        1.8459430000       -0.4577580000
 C       -1.4206270000        1.8723430000       -0.3938380000
 C       -2.7769570000       -0.4901470000        0.1142820000
 N       -1.4229350000       -0.4328000000        0.1434180000
 C       -0.7339060000        0.7226570000       -0.0690520000
 C        0.7339060000        0.7226570000        0.0690510000
 N        1.4229350000       -0.4328000000       -0.1434180000
 C       -0.6210890000       -1.6300530000        0.4263580000
 C        0.6210900000       -1.6300520000       -0.4263590000
 H       -1.2065810000       -2.5145390000        0.1939040000
 H       -0.3783420000       -1.6498900000        1.4922410000
 H        0.3783420000       -1.6498890000       -1.4922420000
 H        1.2065810000       -2.5145390000       -0.1939060000
 C        1.4206270000        1.8723430000        0.3938380000
 C        2.8077590000        1.8459430000        0.4577580000
 C        3.4773690000        0.6708970000        0.1895000000
 C        2.7769570000       -0.4901470000       -0.1142820000
 H       -4.5579350000        0.6274500000       -0.2197770000
 H        4.5579350000        0.6274500000        0.2197790000
 H       -0.8805790000        2.7810660000       -0.6174560000
 H        0.8805790000        2.7810660000        0.6174550000
 H        3.3563910000        2.7436920000        0.7161200000
 H       -3.3563910000        2.7436920000       -0.7161200000
 C        3.4778040000       -1.7679130000       -0.4050380000
 H        3.1794210000       -2.1887700000       -1.3677210000
 H        3.2883720000       -2.5173680000        0.3696480000
 H        4.5509920000       -1.5944070000       -0.4329960000
 C       -3.4778040000       -1.7679130000        0.4050390000
 H       -4.5509920000       -1.5944070000        0.4329980000
 H       -3.1794200000       -2.1887700000        1.3677210000
 H       -3.2883730000       -2.5173680000       -0.3696470000
