18
 energy:      -622.0534437830
 C       -2.2563160000        1.2272460000        0.0288040000
 C       -1.3950820000        2.2993260000        0.0452490000
 C       -1.7750440000       -0.0969970000       -0.0029880000
 C       -0.3709120000       -0.2831260000        0.0031340000
 C        0.4809600000        0.8309540000        0.0125710000
 C       -0.0119760000        2.1184740000        0.0299750000
 C        0.2201210000       -1.5964060000       -0.0090980000
 N        1.6744330000       -1.7444690000        0.1215430000
 C        1.9289710000        0.5941650000       -0.0253610000
 N        2.4357590000       -0.7741950000        0.1207230000
 O        2.7569740000        1.4519970000       -0.1574300000
 O       -0.3908670000       -2.6418480000       -0.0877740000
 N       -2.6183410000       -1.1418700000       -0.0353850000
 H       -3.6094970000       -0.9956380000       -0.0337150000
 H       -2.2295160000       -2.0723690000       -0.0787510000
 H       -3.3280180000        1.3922780000        0.0349080000
 H       -1.8037380000        3.3025760000        0.0666650000
 H        0.6746280000        2.9538860000        0.0306410000
