20
 energy:      -685.0709937850
 C       -0.8913220000       -2.3490070000        0.0001030000
 C       -1.5169630000       -1.0913430000       -0.0000500000
 C       -0.7320990000        0.0602900000       -0.0002220000
 C        0.6810650000       -0.0734650000       -0.0001570000
 C        1.2856470000       -1.3388250000        0.0000120000
 C        0.4709630000       -2.4790140000        0.0001170000
 H        0.9434060000       -3.4529530000        0.0002640000
 H       -1.5133620000       -3.2393300000        0.0002180000
 C       -1.3330880000        1.4122610000       -0.0005730000
 C       -0.4038720000        2.5631200000        0.0001400000
 C        0.9219880000        2.4260380000        0.0001430000
 C        1.5443890000        1.1026150000       -0.0002190000
 O       -2.5287030000        1.6263850000        0.0003640000
 O        2.7768260000        1.0103130000       -0.0001400000
 O        2.6013700000       -1.5072230000        0.0001720000
 H        2.9940530000       -0.5964250000        0.0002190000
 O       -2.8583410000       -1.0068630000       -0.0000700000
 H       -3.2276260000       -1.8930010000        0.0000580000
 H        1.6005230000        3.2711280000        0.0004220000
 H       -0.8864720000        3.5336720000        0.0004520000
