34
 energy:      -802.6020579020
 C       -3.6968360000       -2.4103780000        0.1101560000
 C       -4.3436130000       -1.1763740000        0.1181490000
 C       -2.3317990000       -2.4427270000        0.0727180000
 C       -3.5968210000       -0.0176490000        0.0826490000
 C       -2.2073300000       -0.0690260000        0.0398690000
 N       -1.6038460000       -1.2948070000        0.0386550000
 C       -1.3665970000        1.1124970000       -0.0197480000
 C       -0.2178910000       -1.3865320000        0.0411310000
 C        0.5908780000       -0.3181990000       -0.0054280000
 N       -0.0018420000        0.9694060000       -0.0735750000
 C       -1.9024460000        2.3939730000       -0.0549270000
 C       -1.0876780000        3.5014100000       -0.1695580000
 C        0.8006580000        2.0552900000       -0.2188550000
 C        0.2869280000        3.3225560000       -0.2704540000
 H       -4.2476750000       -3.3415590000        0.1356480000
 H       -1.7603690000       -3.3608700000        0.0710670000
 H       -5.4248100000       -1.1229520000        0.1515330000
 H       -4.1027230000        0.9355180000        0.0868310000
 H       -2.9715920000        2.5297480000       -0.0012820000
 H       -1.5206580000        4.4939390000       -0.1950220000
 H        1.8570040000        1.8418640000       -0.2888900000
 H        0.9631110000        4.1588640000       -0.3904920000
 H        0.1916310000       -2.3829110000        0.1120220000
 C        2.0500860000       -0.4753490000        0.0144540000
 C        2.8081150000        0.0228250000        1.0803880000
 C        2.6678510000       -1.1973250000       -1.0081450000
 C        4.0374360000       -1.4042400000       -0.9718120000
 C        4.1725900000       -0.2003340000        1.1110470000
 C        4.7875430000       -0.9081720000        0.0844860000
 H        2.3325140000        0.5519740000        1.8993340000
 H        4.7579290000        0.1687520000        1.9436490000
 H        5.8568280000       -1.0767050000        0.1127570000
 H        2.0838840000       -1.5776300000       -1.8383780000
 H        4.5182860000       -1.9537000000       -1.7710590000
