32
 energy:      -651.5225701800
 C       -3.6846090000       -0.0988740000       -0.0713580000
 C       -3.2476830000       -1.3519170000        0.3282250000
 C       -1.8877600000       -1.6289110000        0.3466380000
 C       -2.7473860000        0.8454730000       -0.4266220000
 N       -1.4369630000        0.5585960000       -0.4062110000
 C       -0.9783970000       -0.6613890000       -0.0429490000
 C        0.4725130000       -0.9029620000       -0.0759370000
 N        1.3302510000        0.1488600000        0.0037240000
 C       -0.4514050000        1.5723430000       -0.7966580000
 C        0.7663340000        1.5485520000        0.1182570000
 H       -0.9278810000        2.5483450000       -0.7361900000
 H       -0.1639090000        1.3917330000       -1.8359480000
 C        0.9787690000       -2.1858740000       -0.1832740000
 C        2.3489670000       -2.4034560000       -0.1674470000
 C        3.1980450000       -1.3185580000       -0.0477920000
 C        2.6547650000       -0.0531790000        0.0285520000
 H       -4.7353420000        0.1584170000       -0.0981930000
 H        4.2739100000       -1.4330090000       -0.0273760000
 H       -1.5379340000       -2.5932630000        0.6870070000
 H        0.3017680000       -3.0201140000       -0.3018750000
 H        2.7413690000       -3.4095060000       -0.2536850000
 H       -3.9580110000       -2.1108590000        0.6336350000
 H       -3.0143010000        1.8481070000       -0.7346440000
 H        3.2759850000        0.8258420000        0.1043420000
 C        1.7467190000        2.5883550000       -0.4046580000
 H        2.1200090000        2.3488370000       -1.4018160000
 H        2.5857250000        2.7406660000        0.2735440000
 H        1.2292500000        3.5467650000       -0.4633280000
 C        0.4201210000        1.8071950000        1.5802630000
 H       -0.2995840000        1.0935690000        1.9839560000
 H        0.0024820000        2.8097670000        1.6816450000
 H        1.3194930000        1.7617250000        2.1948960000
