29
 energy:     -1068.6175192700
 C       -4.5942300000        0.2882550000       -0.5982020000
 C       -3.5843390000        1.1584910000       -0.2182060000
 C       -2.3371780000        0.6721150000        0.1592120000
 C       -2.1087630000       -0.7048700000        0.1350570000
 C       -4.3595820000       -1.0767970000       -0.6400520000
 C       -3.1097550000       -1.5665090000       -0.2875790000
 N       -1.3250970000        1.5368950000        0.5643390000
 C        0.0171480000        1.2634670000        0.3147010000
 C        0.4948710000       -0.0293840000        0.3127320000
 S       -0.5895800000       -1.3513210000        0.7438090000
 C        0.8997050000        2.3372040000        0.0733410000
 C        2.2273540000        2.1152620000       -0.1463450000
 C        2.7460160000        0.8039350000       -0.1715470000
 C        1.8627350000       -0.2921090000        0.0459920000
 C        4.1137770000        0.5515950000       -0.4076550000
 C        2.3970540000       -1.6003490000        0.0086980000
 C        4.6011750000       -0.7260410000       -0.4334020000
 C        3.7287980000       -1.8099420000       -0.2267920000
 H       -5.5636740000        0.6846620000       -0.8740240000
 H       -3.7631430000        2.2287330000       -0.2053210000
 H       -5.1408270000       -1.7602570000       -0.9472430000
 H       -2.9086670000       -2.6307910000       -0.3198700000
 H        0.5067040000        3.3487070000        0.0758450000
 H        2.8982210000        2.9499510000       -0.3135500000
 H        4.7744030000        1.3961530000       -0.5708520000
 H        5.6535150000       -0.9064200000       -0.6157930000
 H        1.7342280000       -2.4439620000        0.1571270000
 H        4.1147790000       -2.8219480000       -0.2573120000
 H       -1.5652980000        2.5120980000        0.4999610000
