35
 energy:     -1222.1318412300
 C        1.7751290000       -0.3925210000        3.5243710000
 C        0.3767590000       -0.3148340000        3.6917190000
 C        2.3506540000       -0.1278090000        2.3163330000
 C        1.5629160000        0.2638330000        1.2140640000
 C        0.1963690000        0.3681690000        1.3481730000
 C       -0.4330660000        0.0569580000        2.5800760000
 H        2.3910030000       -0.6760560000        4.3699850000
 H        3.4258170000       -0.2059070000        2.1921810000
 N        2.1830310000        0.5450110000        0.0000000000
 C        1.5629160000        0.2638330000       -1.2140640000
 C        0.1963690000        0.3681690000       -1.3481730000
 S       -0.7532850000        0.9939840000       -0.0000000000
 C        2.3506540000       -0.1278090000       -2.3163330000
 C        1.7751290000       -0.3925210000       -3.5243710000
 C        0.3767590000       -0.3148340000       -3.6917190000
 C       -0.4330660000        0.0569580000       -2.5800760000
 H        3.4258170000       -0.2059070000       -2.1921810000
 H        2.3910030000       -0.6760560000       -4.3699850000
 H        3.1774920000        0.3912580000        0.0000000000
 C       -0.2383710000       -0.5966780000        4.9296780000
 C       -1.8332320000        0.1218670000        2.7632860000
 C       -1.5961100000       -0.5216410000        5.0758720000
 C       -2.3976280000       -0.1625310000        3.9770990000
 C       -1.8332320000        0.1218670000       -2.7632860000
 C       -0.2383710000       -0.5966780000       -4.9296780000
 C       -1.5961100000       -0.5216410000       -5.0758720000
 C       -2.3976280000       -0.1625310000       -3.9770990000
 H        0.3907630000       -0.8775600000       -5.7672990000
 H       -2.0561720000       -0.7407880000       -6.0316620000
 H       -2.4611220000        0.3894570000       -1.9225060000
 H       -3.4738820000       -0.1130560000       -4.0924060000
 H       -3.4738820000       -0.1130560000        4.0924060000
 H       -2.4611220000        0.3894570000        1.9225060000
 H        0.3907630000       -0.8775600000        5.7672990000
 H       -2.0561720000       -0.7407880000        6.0316620000
