25
 energy:     -1065.4450289900
 C        1.3041220000       -0.2755090000        3.5750010000
 C       -0.0561100000       -0.5534270000        3.6844260000
 C        1.8608300000        0.0743110000        2.3623660000
 C        1.0614010000        0.1722620000        1.2198200000
 C       -0.3090170000       -0.0697710000        1.3475660000
 C       -0.8587050000       -0.4494090000        2.5662210000
 H        1.9422550000       -0.3488440000        4.4473060000
 H        2.9265970000        0.2601610000        2.2834680000
 H       -0.4819520000       -0.8419440000        4.6363910000
 H       -1.9221360000       -0.6486960000        2.6158620000
 N        1.6312340000        0.4674750000        0.0000000000
 C        1.0614010000        0.1722620000       -1.2198200000
 C       -0.3090170000       -0.0697710000       -1.3475660000
 S       -1.3738010000        0.2685120000       -0.0000000000
 C        1.8608300000        0.0743110000       -2.3623660000
 C        1.3041220000       -0.2755090000       -3.5750010000
 C       -0.0561100000       -0.5534270000       -3.6844260000
 C       -0.8587050000       -0.4494090000       -2.5662210000
 H        2.9265970000        0.2601610000       -2.2834680000
 H        1.9422550000       -0.3488440000       -4.4473060000
 H       -1.9221360000       -0.6486960000       -2.6158620000
 H       -0.4819520000       -0.8419440000       -4.6363910000
 H        2.6293730000        0.5897600000        0.0000000000
 O       -1.6512860000        1.6794670000       -0.0000000000
 O       -2.4770880000       -0.6521070000       -0.0000000000
