22
 energy:      -628.2921935580
 C       -2.0808410000        0.7807990000        0.0288950000
 C       -2.0873810000       -0.7782630000       -0.0067290000
 C       -0.8022850000        1.4465180000       -0.0082570000
 C        0.3295760000        0.7027690000       -0.1034420000
 C        0.3239390000       -0.7585410000       -0.1787900000
 C       -0.7949030000       -1.4768430000       -0.1033550000
 H       -0.7942260000        2.5250820000        0.0773730000
 H       -0.7991610000       -2.5598920000       -0.1238130000
 O       -3.1316810000       -1.3790040000        0.0302350000
 O       -3.1442930000        1.3575030000        0.1114180000
 N        1.6224750000        1.1111100000       -0.1266700000
 C        2.5448430000        0.0167000000        0.0982330000
 C        2.0175630000        2.4748250000        0.0746800000
 H        1.3799220000        3.1363770000       -0.5124860000
 H        3.0475030000        2.6066100000       -0.2569140000
 H        1.9483210000        2.7723750000        1.1282530000
 C        1.7437150000       -1.2222380000       -0.3339860000
 H        2.8095260000       -0.0844680000        1.1587830000
 H        3.4620660000        0.1625520000       -0.4767070000
 O        1.9957890000       -2.3786910000        0.4150050000
 H        1.9222440000       -1.4042960000       -1.4024420000
 H        2.7426070000       -2.8449340000        0.0378710000
