34
 energy:     -1332.4404610400
 C        1.1368600000        3.0438010000       -1.4836990000
 C       -0.0084520000        3.6843910000       -1.0274130000
 C        1.3532590000        1.7008880000       -1.2269170000
 C        0.4319530000        0.9794140000       -0.4766330000
 C       -0.7092020000        1.6349490000       -0.0205390000
 C       -0.9458700000        2.9710520000       -0.3032790000
 H        1.8640880000        3.5919990000       -2.0702220000
 H        2.2326550000        1.2053700000       -1.6130800000
 H       -0.1741940000        4.7311690000       -1.2480680000
 H       -1.8622040000        3.4276310000        0.0491740000
 N        0.5785680000       -0.4136420000       -0.2471440000
 C       -0.5644860000       -1.2395910000       -0.4130620000
 C       -1.8022490000       -0.7912440000        0.0431900000
 S       -1.8469600000        0.7125600000        0.9498610000
 C       -0.4991070000       -2.4632350000       -1.0674280000
 C       -1.6536330000       -3.2061460000       -1.2507540000
 C       -2.8856760000       -2.7400060000       -0.8103350000
 C       -2.9632490000       -1.5182770000       -0.1669150000
 H        0.4521230000       -2.8278850000       -1.4250900000
 H       -1.5895300000       -4.1582380000       -1.7633060000
 H       -3.9059940000       -1.1155480000        0.1813530000
 H       -3.7818210000       -3.3250680000       -0.9734880000
 O       -3.1530990000        1.3007980000        0.8522290000
 O       -1.2651490000        0.4863400000        2.2431490000
 C        1.7385930000       -0.9803700000        0.2709680000
 O        2.6472380000       -0.0483450000        0.5538980000
 O        1.8812980000       -2.1603750000        0.4550300000
 C        3.8736310000       -0.5246400000        1.1303940000
 C        4.8566060000       -0.9575760000        0.0712290000
 H        4.2467880000        0.3266390000        1.6984920000
 H        3.6439080000       -1.3402500000        1.8154130000
 H        4.4746200000       -1.8128130000       -0.4862840000
 H        5.7955730000       -1.2529320000        0.5435970000
 H        5.0692140000       -0.1433330000       -0.6235560000
