38
 energy:      -900.6495541540
 C        3.1445840000       -0.7250510000        0.0786940000
 C        2.2370200000       -1.7261300000        0.1027360000
 C        2.7405940000        0.7096220000       -0.0097270000
 C        1.3116080000        0.9611500000       -0.0615900000
 C        0.3546460000       -0.0860440000       -0.0538290000
 C        0.7615530000       -1.4806790000        0.0233550000
 O        3.5827600000        1.5943990000       -0.0273250000
 O       -0.0174570000       -2.4184610000        0.0185020000
 C        0.6296690000        2.1575770000       -0.0902150000
 N       -0.7064660000        1.8588060000       -0.0914460000
 C       -0.9013470000        0.4940330000       -0.0645420000
 C        1.1327820000        3.5499480000       -0.1267470000
 H        2.2154490000        3.5334570000       -0.0278950000
 H        0.7093680000        4.1541480000        0.6802900000
 H        0.8832770000        4.0445600000       -1.0709780000
 C       -1.7398280000        2.8615420000       -0.2051760000
 H       -1.4445470000        3.6107440000       -0.9389980000
 H       -1.9180220000        3.3611890000        0.7496210000
 H       -2.6640970000        2.3931240000       -0.5320700000
 C        4.6113920000       -0.9950550000        0.1412230000
 H        4.8735590000       -1.5228990000        1.0624070000
 H        5.1678030000       -0.0612340000        0.1002890000
 H        4.9284310000       -1.6340230000       -0.6875670000
 C        2.6574640000       -3.1554740000        0.1957100000
 H        3.2500210000       -3.3304520000        1.0978300000
 H        3.2886970000       -3.4342360000       -0.6528500000
 H        1.7849290000       -3.8045810000        0.2130720000
 C       -2.2380480000       -0.1050350000       -0.0199520000
 C       -2.5986950000       -1.0974920000       -0.9305060000
 C       -3.1694570000        0.2931460000        0.9410480000
 C       -4.4316430000       -0.2770760000        0.9829750000
 C       -4.7826210000       -1.2548190000        0.0642440000
 C       -3.8612220000       -1.6637930000       -0.8895100000
 H       -1.8766910000       -1.4296170000       -1.6639600000
 H       -2.8937040000        1.0377660000        1.6788150000
 H       -5.1384150000        0.0369060000        1.7417140000
 H       -5.7685680000       -1.7026540000        0.0963210000
 H       -4.1253480000       -2.4335520000       -1.6044800000
