26
 energy:      -668.5841596910
 C        3.0508440000       -0.1387410000        0.0370790000
 C        2.6555800000       -1.4163290000        0.0220180000
 C        2.1124440000        1.0148210000        0.0226500000
 H        4.1014280000        0.1302090000        0.0608620000
 C        0.7060330000        0.6514470000       -0.0099720000
 C        0.2898190000       -0.7174660000       -0.0241030000
 C        1.2275590000       -1.8230280000       -0.0112760000
 H        3.3695980000       -2.2327310000        0.0327680000
 C       -0.4239300000        1.4508160000       -0.0232170000
 N       -1.4838990000        0.5916320000       -0.0336980000
 C       -1.0832030000       -0.7095870000       -0.0413060000
 O        2.5427690000        2.1566490000        0.0379530000
 O        0.9100800000       -3.0003170000       -0.0258600000
 C       -0.5776680000        2.9233830000       -0.0166780000
 H        0.4069890000        3.3846460000        0.0040140000
 H       -1.1408090000        3.2626880000        0.8577860000
 H       -1.1096690000        3.2745370000       -0.9057180000
 C       -2.9230090000        0.7500460000       -0.1070580000
 C       -3.4174170000       -0.6561980000        0.2654940000
 H       -3.2174360000        1.0367670000       -1.1213250000
 H       -3.2712760000        1.5220030000        0.5795960000
 C       -2.2624630000       -1.6102050000       -0.1024660000
 H       -4.3511750000       -0.9056420000       -0.2363180000
 H       -3.5955930000       -0.7001190000        1.3411060000
 H       -2.3780950000       -2.0167300000       -1.1124210000
 H       -2.1770050000       -2.4614640000        0.5717990000
