29
 energy:      -782.7939809630
 C       -3.5549220000       -1.2574550000        0.1766210000
 C       -2.5271890000       -2.1092590000        0.2398720000
 C       -3.3734270000        0.2052370000        0.0202700000
 H       -4.5831660000       -1.5964410000        0.2393120000
 C       -1.1000890000       -1.6992590000        0.1429870000
 H       -2.6800900000       -3.1768480000        0.3552100000
 C       -0.8846180000       -0.2644250000       -0.0031780000
 C       -1.9835240000        0.6356310000       -0.0528460000
 C       -1.4691260000        1.9006550000       -0.1537890000
 N       -0.1121880000        1.8079130000       -0.1587030000
 C        0.2777300000        0.4919050000       -0.0627940000
 H       -1.9694120000        2.8520390000       -0.2319110000
 C        0.7564510000        2.9534440000       -0.3173660000
 H        1.6749900000        2.6533060000       -0.8163690000
 H        1.0091060000        3.3992150000        0.6462430000
 H        0.2471980000        3.6981330000       -0.9269540000
 C        1.6866590000        0.0925890000       -0.0229200000
 C        2.1579700000       -0.9100890000       -0.8697690000
 C        2.5781800000        0.6926810000        0.8681790000
 C        3.9091900000        0.3096890000        0.9022950000
 C        3.4888550000       -1.2888690000       -0.8364110000
 C        4.3692380000       -0.6794920000        0.0462890000
 H        1.4708050000       -1.3977390000       -1.5476040000
 H        3.8393070000       -2.0689290000       -1.5012530000
 H        5.4094610000       -0.9809410000        0.0727870000
 H        4.5854270000        0.7784980000        1.6069960000
 H        2.2213350000        1.4452620000        1.5612520000
 O       -4.3280450000        0.9577730000       -0.0300670000
 O       -0.2254440000       -2.5451280000        0.1786400000
