36
 energy:     -2121.1759379500
 C       -5.3136710000        0.2145560000        0.0000660000
 C       -5.0046340000        1.5793780000        0.0000610000
 C       -4.2934760000       -0.7173540000        0.0000730000
 C       -2.9716880000       -0.2720910000        0.0000490000
 C       -2.6802880000        1.1020440000        0.0000150000
 C       -3.6992780000        2.0443060000        0.0000300000
 H       -5.8281730000        2.2839850000        0.0001310000
 H       -4.5367110000       -1.7727090000        0.0001220000
 H       -3.4834830000        3.1067460000        0.0000350000
 S       -7.0442260000       -0.2739920000       -0.0000240000
 C       -1.6982940000       -0.9848620000        0.0000450000
 N       -1.3132510000        1.3003660000       -0.0000100000
 C       -0.6706040000        0.0922480000        0.0000110000
 C        0.6706050000       -0.0922480000       -0.0000060000
 N        1.3132520000       -1.3003660000        0.0000140000
 C        1.6982940000        0.9848620000       -0.0000390000
 C        2.9716880000        0.2720910000       -0.0000460000
 C        2.6802890000       -1.1020440000       -0.0000130000
 C        3.6992790000       -2.0443060000       -0.0000320000
 C        5.0046350000       -1.5793780000       -0.0000660000
 C        5.3136720000       -0.2145560000       -0.0000690000
 C        4.2934760000        0.7173540000       -0.0000730000
 H        4.5367110000        1.7727090000       -0.0001230000
 H        3.4834840000       -3.1067450000       -0.0000380000
 H        5.8281740000       -2.2839850000       -0.0001400000
 O       -7.0144200000       -1.7267090000        0.0008940000
 O       -7.5740850000        0.3195990000       -1.2183860000
 O       -7.5746450000        0.3211430000        1.2173430000
 S        7.0442270000        0.2739930000        0.0000210000
 O        7.0144170000        1.7267090000       -0.0009270000
 O        7.5746500000       -0.3211690000       -1.2173310000
 O        7.5740750000       -0.3195740000        1.2183990000
 H       -0.8088390000        2.1712460000       -0.0000580000
 H        0.8088400000       -2.1712460000        0.0000590000
 O        1.4439060000        2.1832530000       -0.0000310000
 O       -1.4439060000       -2.1832530000        0.0000390000
