31
 energy:     -1231.5457557500
 C        0.6024090000        2.5508260000        0.0043120000
 C       -0.9177360000        2.7409170000        0.1905940000
 C        1.1613840000        1.1577540000       -0.0317810000
 C        0.3386280000        0.0065580000        0.0076000000
 C       -1.0922800000        0.2517080000       -0.0008530000
 C       -1.6857630000        1.5172390000        0.1132990000
 O       -1.3716490000        3.8451650000        0.3507760000
 O        1.3169360000        3.5100530000       -0.1017500000
 C        0.9870410000       -1.2455900000        0.0901410000
 C        2.3787520000       -1.3121080000        0.0137240000
 C        2.5387500000        1.0587120000       -0.0815240000
 C        3.1660040000       -0.1786890000       -0.1035420000
 H        2.8477020000       -2.2906010000        0.0539600000
 H        3.1279080000        1.9671120000       -0.1093280000
 C        4.6576030000       -0.2237350000       -0.1768000000
 C        0.2865420000       -2.5574350000        0.2515050000
 C       -3.0781520000        1.3457440000        0.0802640000
 C       -3.2996170000       -0.0043370000       -0.0686180000
 N       -2.0934730000       -0.6442550000       -0.1121560000
 C       -4.5750180000       -0.7092260000       -0.1859080000
 O       -5.6524670000       -0.1805520000       -0.1493310000
 O       -4.3985240000       -2.0346390000       -0.3411150000
 H       -5.2756480000       -2.4298350000       -0.4128900000
 O       -0.6990260000       -2.9028600000       -0.3444920000
 O        0.8580930000       -3.4107800000        1.1096710000
 H        1.5525630000       -2.9762950000        1.6142410000
 O        5.3491400000        0.6666710000        0.2169040000
 O        5.2020640000       -1.3365360000       -0.7040780000
 H        4.5326670000       -1.8800110000       -1.1281810000
 H       -3.8318080000        2.1127930000        0.1430260000
 H       -1.9469000000       -1.6355740000       -0.2828900000
