38
energy:      -805.0418577290
N         -1.48498        1.13309       -0.21843
C         -1.10793       -0.20476        0.07073
C          0.16808       -0.56976        0.14400
C          1.21515        0.44541       -0.09018
C         -0.49103        2.11923       -0.44173
C          0.81013        1.82893       -0.39299
C          2.66576        0.07881       -0.02052
C          3.14548       -1.20714       -0.58170
C          4.44221       -1.49473       -0.49572
N          5.36177       -0.60408        0.10990
C          3.64593        0.99236        0.61255
C          4.92500        0.62989        0.64993
H         -1.87461       -0.94800        0.24029
H          0.45441       -1.58535        0.36785
H          1.55775        2.58451       -0.56754
H         -0.81206        3.13565       -0.66113
H          2.44593       -1.87867       -1.04137
H          4.81596       -2.43213       -0.89718
H          5.66095        1.28577        1.10594
H          3.31051        1.92753        1.02326
C          6.75170       -0.94928        0.16402
H          6.88324       -2.04326        0.20895
H          7.23555       -0.49233        1.04347
H          7.24467       -0.55902       -0.76841
C         -2.87042        1.55198       -0.29413
C         -3.87450        0.44821       -0.07684
H         -3.04456        2.00008       -1.29706
H         -3.03547        2.34532        0.46776
C         -4.34160        0.16381        1.21429
C         -4.33148       -0.31201       -1.16305
C         -5.24406       -1.34926       -0.95721
C         -5.70228       -1.63130        0.33136
C         -5.25355       -0.87479        1.41596
H         -5.61408       -1.08865        2.41266
H         -3.99846        0.74495        2.05958
H         -3.98164       -0.09949       -2.16448
H         -5.59777       -1.93004       -1.79793
H         -6.41175       -2.43143        0.48851
