32
energy:      -742.7750498060
N          2.45511        0.08608       -0.72564
C          1.80441       -1.14812       -0.39767
C          0.48656       -1.19708       -0.21626
C          1.70829        1.29731       -0.92263
C          0.38135        1.31168       -0.75870
C         -0.31930        0.04886       -0.37820
C         -1.80631        0.03039       -0.14884
C         -2.62878       -1.11100       -0.64456
C         -3.94549       -1.10926       -0.42776
N         -4.56780       -0.02852        0.28051
C         -2.48565        1.13855        0.58640
C         -3.80305        1.08034        0.77458
H          2.38896       -2.05559       -0.27208
H          0.00648       -2.13435        0.05449
H          2.21173        2.22126       -1.17706
H         -0.17372        2.23515       -0.88950
H         -2.16245       -1.93522       -1.17826
H         -4.54023       -1.94109       -0.78658
H         -4.29855        1.89226        1.29909
H         -1.91450        1.98315        0.95814
C         -5.99785       -0.05053        0.47733
H         -6.35284       -1.09192        0.63161
H         -6.49436        0.38184       -0.41656
H         -6.28003        0.53852        1.37726
C          3.90209        0.13705       -0.78143
C          4.49497       -0.13218        0.58379
H          4.22817        1.15204       -1.09120
H          4.28916       -0.58556       -1.53341
N          5.81056        0.09872        0.80065
O          3.79403       -0.51760        1.50828
H          6.40262        0.47208        0.04906
H          6.21285       -0.05947        1.73578
