31
energy:     -1147.8620646600
C          2.69357        1.45140        0.00768
C          2.61682        0.06350        0.09407
C          1.54842        2.18570       -0.25354
C          1.36577       -0.57452       -0.00463
N          0.32579        1.57892       -0.30783
C          0.19457        0.21934       -0.08403
C          1.25799       -1.97538       -0.07105
C          0.01604       -2.58470       -0.25260
C         -1.15420       -1.82243       -0.21110
C         -1.08299       -0.42090       -0.03362
C         -2.40894       -2.43711       -0.29240
C         -3.56559       -1.68744       -0.10025
C         -3.45602       -0.34720        0.24795
N         -2.24104        0.26468        0.29576
H          3.64792        1.95670        0.05973
H          1.63878        3.24856       -0.44523
H          2.14058       -2.60447       -0.04395
H         -0.03731       -3.66209       -0.35829
C         -2.17239        1.56923        0.97776
C         -1.86052        2.72256        0.07331
H         -1.38664        1.48897        1.76509
H         -3.10097        1.80340        1.54419
C         -0.77846        2.35473       -0.89550
H         -1.54896        3.58040        0.70677
H         -2.75762        3.02015       -0.50990
H         -0.42784        3.27753       -1.40619
H         -1.20943        1.73408       -1.71800
H         -4.53844       -2.15356       -0.13666
H         -4.35231        0.19544        0.52888
H         -2.49177       -3.50209       -0.47305
Cl         4.11751       -0.83813        0.28958
