30
energy:     -1068.8259501100
C          3.48681       -2.01575        0.17497
C          4.13091       -0.86333        0.62635
C          2.19302       -1.93481       -0.33114
C          1.53244       -0.69992       -0.39460
C          2.18812        0.46365        0.04484
C          3.48504        0.37329        0.55760
H          3.98437       -2.97424        0.22158
H          1.68754       -2.83692       -0.65906
H          5.13399       -0.92459        1.02199
H          3.99227        1.26504        0.89702
N          0.19850       -0.68234       -0.84994
C         -0.70714        0.33994       -0.48076
C         -0.27865        1.61375       -0.06482
S          1.44869        2.09010       -0.09026
C         -2.08641        0.04487       -0.46922
C         -3.01267        1.00847       -0.07385
C         -2.57774        2.26623        0.33768
C         -1.21513        2.56790        0.34681
H         -4.06699        0.76483       -0.06809
H         -0.88184        3.54573        0.67013
H         -3.29606        3.00594        0.65605
H         -0.18456       -1.55889       -1.22880
O         -2.50644       -1.19981       -0.78050
C         -2.53034       -2.20763        0.17076
C         -3.78279       -2.09739        1.03137
H         -1.62184       -2.16817        0.81723
H         -2.53181       -3.19024       -0.34515
H         -3.79225       -1.13780        1.58935
H         -3.80910       -2.92994        1.76353
H         -4.68406       -2.15266        0.38488
