25
energy:     -1028.3563367600
C         -3.53655        0.65230       -0.85470
C         -3.74357       -0.70067       -0.56828
C         -2.31235        1.24487       -0.58705
C         -1.25831        0.48828       -0.03177
C         -1.45450       -0.87448        0.22364
C         -2.69784       -1.46795       -0.02401
H         -4.34187        1.23096       -1.29305
H         -2.17687        2.28983       -0.83178
H         -4.69940       -1.16612       -0.76432
H         -2.86017       -2.51031        0.20331
N          0.00544        1.10506        0.23038
C          1.20237        0.36488       -0.04182
C          1.23212       -1.02619        0.19097
S         -0.15663       -1.87612        0.95702
C          2.32975        0.98635       -0.61642
C          3.46910        0.23792       -0.92278
C          3.50006       -1.13036       -0.66061
C          2.39141       -1.76334       -0.10602
H          2.32022        2.03844       -0.85478
H          4.32619        0.72436       -1.36861
H          2.42356       -2.82402        0.10300
H          4.38908       -1.70400       -0.89063
C          0.04045        2.38441        0.71980
O          1.08842        2.92598        1.01820
H         -0.88993        2.89867        0.96620
