44
energy:     -1244.1424361700
C         -2.84685       -3.01937       -1.13458
C         -3.73841       -2.80654       -0.08731
C         -1.78237       -2.14558       -1.33462
C         -1.59067       -1.06183       -0.45551
C         -2.49518       -0.84288        0.56497
C         -3.57031       -1.70425        0.75138
H         -2.97213       -3.85712       -1.79824
H         -1.13461       -2.30533       -2.17818
H         -4.56208       -3.48908        0.07162
H         -4.26633       -1.52796        1.55966
N         -0.51200       -0.15270       -0.68190
C         -0.77306        1.23285       -0.48192
C         -1.61220        1.65301        0.53204
S         -2.25541        0.48880        1.72915
C         -0.22188        2.17596       -1.36628
C         -0.50499        3.52504       -1.20032
C         -1.34494        3.94326       -0.17137
C         -1.90935        2.99991        0.68886
H          0.40483        1.86919       -2.18305
H         -0.06813        4.24075       -1.87433
H         -2.56353        3.31939        1.48778
H         -1.55856        4.99497       -0.03887
C          0.66827       -0.59425       -1.37516
C          1.97525       -0.12546       -0.72131
H          0.62458       -0.25698       -2.42512
H          0.70104       -1.69393       -1.38186
C          3.15816       -0.52294       -1.60871
C          4.47848       -0.15129       -0.93489
H          3.08201       -0.01929       -2.59562
H          3.13148       -1.61347       -1.79046
C          4.54936       -0.75316        0.46487
H          4.55720        0.94997       -0.85899
H          5.32842       -0.51783       -1.53537
N          3.40378       -0.29991        1.26066
H          5.47706       -0.41106        0.96069
H          4.58129       -1.86022        0.39779
C          2.13729       -0.74398        0.66661
H          1.98046        0.97497       -0.61151
H          1.31088       -0.40629        1.31456
H          2.09627       -1.84942        0.58872
C          3.51454       -0.78317        2.63788
H          4.44763       -0.39564        3.08427
H          3.51767       -1.89160        2.70193
H          2.66407       -0.39346        3.22623
