34
energy:      -951.0862230130
N         -3.44753        0.01773       -0.72506
C         -2.84999       -1.14719       -0.16225
C         -1.55477       -1.18296        0.12817
C         -2.67674        1.18656       -1.01941
C         -1.37137        1.22312       -0.76142
C         -0.72752        0.02641       -0.16296
C          0.72738        0.02626        0.16297
C          1.55470       -1.18295       -0.12824
C          1.37186        1.22272        0.76155
C          2.67626        1.18637        1.01960
C          2.84936       -1.14692        0.16252
N          3.44739        0.01798        0.72562
H          3.15132        2.06397        1.44382
H          0.78515        2.11104        0.97250
H          1.10659       -2.05629       -0.56634
H          3.46592       -2.01979       -0.05019
H         -0.78530        2.11121       -0.97257
H         -3.15299        2.06391       -1.44333
H         -3.46585       -2.01966        0.05016
H         -1.10657       -2.05629        0.56621
C         -4.86621        0.02843       -0.96012
C         -5.63008       -0.06882        0.32544
H         -5.15297       -0.81238       -1.62615
H         -5.16620        0.97567       -1.45385
O         -5.06357       -0.27407        1.39584
O         -6.96070        0.10454        0.29713
C          4.86621        0.02837        0.96006
C          5.62928       -0.06882       -0.32560
H          5.15289       -0.81234        1.62615
H          5.16618        0.97569        1.45399
O          6.96058        0.10454       -0.29705
O          5.06354       -0.27414       -1.39586
H         -7.47764        0.09525        1.11113
H          7.47770        0.09527       -1.11119
