50
energy:     -1220.1930551700
N          3.52841       -0.64693       -0.66257
C          2.79473       -1.74099       -1.19725
C          1.47065       -1.80818       -1.09671
C          2.83984        0.41473       -0.00894
C          1.51209        0.40487        0.12051
C          0.73924       -0.72316       -0.42556
C         -0.74383       -0.78667       -0.27958
C         -1.40620       -2.05247        0.07309
C         -1.57261        0.41390       -0.46011
C         -2.89130        0.31903       -0.32444
C         -2.73369       -2.08873        0.18448
N         -3.52246       -0.91893       -0.00273
H         -0.81581       -2.93486        0.22247
H         -3.23531       -2.98094        0.47595
H          3.34442       -2.52171       -1.66929
H          0.92443       -2.64239       -1.49503
H          0.98891        1.20277        0.61461
H          3.40096        1.23011        0.37714
H         -3.50226        1.18791       -0.43065
H         -1.10095        1.34524       -0.70934
C          4.98271       -0.64696       -0.82062
C          5.49684       -1.93045       -0.31151
N          5.82901       -2.98888        0.00897
C          5.67194        0.51547       -0.14244
H          5.18112       -0.57937       -1.91127
C          5.93084        1.68620       -0.86933
C          6.03535        0.45587        1.21787
C          6.64816        1.54935        1.82968
C          6.89552        2.71118        1.09709
C          6.53824        2.77933       -0.25058
H          5.85753       -0.44103        1.79692
H          6.93729        1.49161        2.86948
H          7.37382        3.55444        1.57011
H          5.65678        1.74837       -1.91216
H          6.73783        3.67574       -0.82052
C         -4.94974       -0.99545        0.24481
C         -5.17597       -1.53061        1.59039
N         -5.33388       -1.97446        2.64424
C         -5.72589        0.25803       -0.04117
H         -5.28585       -1.78662       -0.48475
C         -5.95965        1.19646        0.97669
C         -6.64236        2.37888        0.69277
C         -7.08858        2.63575       -0.60494
C         -6.86088        1.70462       -1.61969
C         -6.18022        0.51773       -1.34101
H         -5.62714        1.00986        1.98828
H         -6.82991        3.09313        1.48165
H         -7.61987        3.54957       -0.82068
H         -7.21608        1.89945       -2.62295
H         -6.01312       -0.19618       -2.13553
