38
energy:      -879.2453805710
N         -3.52474       -0.64695        0.00307
C         -2.92665       -0.12871        1.20036
C         -1.60100       -0.10147        1.33889
C         -2.72882       -1.18931       -1.05685
C         -1.39975       -1.18727       -0.98049
C         -0.74308       -0.62451        0.23710
C          0.74917       -0.55862        0.34360
C          1.42484        0.65648        0.90197
C          2.74863        0.69482        0.96059
C          1.59446       -1.69780       -0.11600
C          2.92134       -1.59519       -0.03815
N          3.53915       -0.40909        0.47745
H         -3.20230       -1.59339       -1.94721
H         -0.80571       -1.58587       -1.79843
H         -3.54684        0.26304        1.99899
H         -1.15204        0.30611        2.23958
H          3.52811       -2.42356       -0.38711
H          1.13841       -2.59344       -0.51927
H          0.83167        1.49734        1.25178
H          3.23865        1.57424        1.36237
C         -4.96305       -0.57691       -0.16365
C         -5.44051        0.85278       -0.22334
H         -5.47112       -1.11856        0.66384
H         -5.25425       -1.06822       -1.11599
C         -6.84627        1.13362       -0.62838
H         -7.06643        2.21799       -0.54518
H         -7.54468        0.55717        0.01078
H         -6.96949        0.82287       -1.68812
O         -4.68488        1.78298        0.01970
C          4.98018       -0.30173        0.45746
C          5.43581        0.78953       -0.47874
H          5.42361       -1.25745        0.09845
H          5.36504       -0.11596        1.48131
C          6.88276        0.90452       -0.81203
H          7.47829        0.96839        0.12077
H          7.06721        1.80165       -1.43960
H          7.17866       -0.00074       -1.38277
O          4.63544        1.55855       -0.99139
