34
energy:     -1571.6652832300
N         -3.52325       -0.79492       -0.07748
C         -2.71173       -1.22244       -1.17539
C         -1.37937       -1.20205       -1.08817
C         -2.93829       -0.34456        1.15264
C         -1.61601       -0.29730        1.30259
C         -0.74346       -0.72195        0.17208
C          0.74930       -0.66719        0.30550
C          1.60260       -1.77105       -0.22545
C          1.40043        0.48848        0.97851
C          2.72400        0.50584        1.08092
C          2.92792       -1.68211       -0.10273
N          3.52668       -0.55281        0.54383
H          3.20327        1.35377        1.57320
H          0.80743        1.30435        1.38018
H          1.14871       -2.62954       -0.70861
H          3.54860       -2.48148       -0.49536
H         -1.18147        0.05306        2.23463
H         -3.57080       -0.02388        1.97464
H         -3.17369       -1.57331       -2.09234
H         -0.76537       -1.52942       -1.92257
C         -4.96245       -0.79962       -0.20986
C         -5.45248        0.50515       -0.83867
H         -5.43606       -0.93808        0.78521
H         -5.27334       -1.66337       -0.83704
Cl        -5.02967        1.92333        0.16294
H         -6.55637        0.46434       -0.92739
H         -5.01308        0.63691       -1.84990
C          4.96938       -0.47225        0.64504
C          5.56356        0.16955       -0.60927
H          5.38794       -1.49201        0.78644
H          5.25267        0.11942        1.53984
Cl         4.96129        1.83406       -0.84943
H          5.31576       -0.43424       -1.50695
H          6.66524        0.21507       -0.49552
