30
energy:     -2488.1002950800
N         -3.56546       -0.22937        0.18011
C         -2.84147        0.96512        0.53446
C         -1.50720        0.99686        0.48564
C         -2.87414       -1.41740       -0.21604
C         -1.54164       -1.43941       -0.31811
C         -0.75494       -0.21341        0.02886
C          0.75447       -0.21389       -0.03289
C          1.50542        0.99864       -0.48489
C          2.84105        0.96273       -0.53434
N          3.56593       -0.22894       -0.17919
C          1.54145       -1.43794        0.31443
C          2.87419       -1.41825        0.21420
H         -3.43670       -2.31182       -0.47407
H         -3.37781        1.84575        0.87604
H         -0.97367        1.89655        0.77903
H         -1.03759       -2.34089       -0.64747
H          3.43596       -2.31054        0.47294
H          1.03790       -2.34138        0.64408
H          0.97471        1.89678       -0.77888
H          3.37702        1.84609       -0.87684
C         -4.97593       -0.26011        0.27607
C         -5.75354        0.64770       -0.34639
C          4.98245       -0.25804       -0.27976
C          5.75370        0.64977        0.34421
Cl        -5.09220        1.88790       -1.41088
Cl        -5.75378       -1.54242        1.20309
Cl         5.09438        1.89081        1.40826
Cl         5.75427       -1.54316       -1.19845
H         -6.83237        0.57947       -0.25712
H          6.83332        0.58008        0.25764
