46
energy:     -1067.9870767600
N         -3.31422       -1.29172        0.10772
C         -2.80349       -0.63055        1.27375
C         -1.56814       -0.13577        1.29873
C         -2.50139       -1.47020       -1.06083
C         -1.25209       -0.99366       -1.10035
C         -0.70133       -0.27696        0.09153
C          0.70293        0.27609        0.09311
C          1.56772        0.13441        1.29918
C          1.25398        0.99472       -1.09822
C          2.50218        1.47253       -1.05730
C          2.80559        0.63025        1.27861
N          3.31394        1.29358        0.11035
H          2.90150        1.98014       -1.92982
H          0.64830        1.12031       -1.99017
H          1.20081       -0.36519        2.19048
H          3.42764        0.52652        2.15926
H         -0.64616       -1.11741       -1.99268
H         -2.90088       -1.97490       -1.93492
H         -3.42815       -0.52643        2.15683
H         -1.20030        0.36393        2.18998
C         -4.68691       -1.75968        0.11641
C         -5.63085       -0.58865        0.01684
H         -4.86367       -2.32634        1.05611
H         -4.87902       -2.46165       -0.72536
C         -6.78805       -0.67310       -0.76933
C         -7.63575        0.43202       -0.86068
C         -7.31160        1.61347       -0.19122
C         -6.14629        1.66826        0.57295
N         -5.34697        0.57489        0.66831
H         -7.03495       -1.58770       -1.29435
H         -8.53860        0.37477       -1.45303
H         -7.95596        2.47903       -0.26380
H         -5.87447        2.57873        1.08952
C          4.68913        1.76112        0.11963
C          5.63135        0.58912        0.01843
H          4.86736        2.32910        1.05903
H          4.88042        2.45971       -0.72122
C          6.78772        0.67362       -0.76907
N          5.34788       -0.57485        0.66977
C          6.14610       -1.66811        0.57168
C          7.31253       -1.61285       -0.19218
C          7.63561       -0.43194       -0.86116
H          5.87499       -2.57886        1.08924
H          7.95547       -2.47891       -0.26530
H          8.53900       -0.37479       -1.45463
H          7.03538        1.58850       -1.29336
