44
energy:      -957.8263870910
N         -3.53649        0.13594       -0.61617
C         -2.91391       -0.92287       -1.35063
C         -1.58947       -1.04842       -1.38316
C         -0.75228       -0.06220       -0.65226
C         -2.75962        1.11053        0.10975
C         -1.41747        1.03274        0.10716
C          0.73695       -0.19550       -0.65127
C          1.37558       -1.52619       -0.46018
C          2.70217       -1.61373       -0.43540
N          3.52141       -0.44088       -0.56496
C          2.93180        0.86586       -0.74214
C          1.60460        1.00510       -0.79283
H         -3.51732       -1.65982       -1.87097
H         -1.12935       -1.86498       -1.93002
H         -0.81270        1.75879        0.64574
H          0.76898       -2.41863       -0.33758
H          3.15630       -2.58124       -0.28178
H          1.14286        1.98190       -0.92826
C         -4.98236        0.13511       -0.53494
C         -5.44450       -0.51820        0.73861
H         -5.38810        1.16604       -0.62365
H         -5.40784       -0.43713       -1.38468
C         -6.90009       -0.72233        0.95683
H         -7.09036       -1.17582        1.95083
H         -7.28434       -1.39890        0.16467
H         -7.41300        0.25817        0.88622
O         -4.63718       -0.90705        1.57601
C         -3.42602        2.22932        0.86400
H         -2.69111        2.89502        1.36434
H         -4.01609        2.84575        0.15466
H         -4.09509        1.80314        1.63701
C          4.94683       -0.60021       -0.39688
C          5.35911       -0.25677        1.01107
H          5.50626        0.00220       -1.14112
H          5.22924       -1.66133       -0.58311
C          6.77086       -0.50224        1.41649
H          6.97132       -1.59388        1.36031
H          6.94868       -0.15320        2.45540
H          7.44855        0.03133        0.71960
O          4.55893        0.18611        1.81479
C          3.80565        2.08494       -0.89646
H          4.44486        1.95713       -1.79472
H          4.44003        2.20344        0.00292
H          3.20700        3.01120       -1.02873
