46
energy:     -1366.0792485000
N         -0.00000        0.00000        3.52490
C         -0.39400        1.15265        2.82824
C         -0.40758        1.18728        1.49974
C          0.39400       -1.15265        2.82824
C          0.40758       -1.18728        1.49974
C         -0.00000        0.00000        0.74727
C          0.00000        0.00000       -0.74727
C          0.40758        1.18728       -1.49974
C         -0.40758       -1.18728       -1.49974
C         -0.39400       -1.15266       -2.82824
C          0.39400        1.15266       -2.82824
N          0.00000        0.00000       -3.52490
H         -0.71581       -1.97514       -3.41302
H         -0.72083       -2.05323       -0.96498
H          0.72083        2.05323       -0.96498
H          0.71581        1.97514       -3.41302
H          0.72083       -2.05323        0.96498
H          0.71581       -1.97514        3.41302
H         -0.71581        1.97514        3.41302
H         -0.72083        2.05323        0.96498
C         -0.00000        0.00000        4.93189
C         -0.61184       -1.05076        5.62214
C          0.61184        1.05076        5.62214
C          0.61127        1.04668        7.00298
C         -0.00000        0.00000        7.68714
C         -0.61127       -1.04668        7.00298
H         -1.10846       -1.84867        5.08058
H         -1.08751       -1.84459        7.55878
H          1.10846        1.84867        5.08058
H          1.08751        1.84459        7.55878
C          0.00000       -0.00000       -4.93189
C         -0.61184        1.05076       -5.62214
C         -0.61127        1.04668       -7.00298
C         -0.00000        0.00000       -7.68714
C          0.61184       -1.05076       -5.62214
C          0.61127       -1.04668       -7.00298
H          1.10846       -1.84867       -5.08058
H          1.08751       -1.84459       -7.55878
H         -1.10846        1.84867       -5.08058
H         -1.08751        1.84459       -7.55878
N          0.00000        0.00000       -9.09980
O         -0.50244        0.89487       -9.72152
O          0.50244       -0.89487       -9.72152
N          0.00000        0.00000        9.09980
O          0.50244        0.89487        9.72152
O         -0.50244       -0.89487        9.72152
