28
energy:      -574.1732647390
N          3.53339        0.00404       -0.00656
C          2.82364       -1.15276       -0.42916
C          1.50342       -1.18511       -0.44302
C          2.82200        1.15923        0.41771
C          1.50183        1.18902        0.43389
C          0.75717        0.00053       -0.00203
C         -0.75717       -0.00053       -0.00207
C         -1.50186       -1.18900        0.43384
C         -1.50339        1.18510       -0.44316
C         -2.82362        1.15274       -0.42938
C         -2.82202       -1.15921        0.41758
N         -3.53339       -0.00404       -0.00678
H         -3.41065        1.98107       -0.73731
H         -0.96583        2.04935       -0.76363
H         -0.96317       -2.05222        0.75516
H         -3.40817       -1.98914        0.72284
H          0.96312        2.05225        0.75515
H          3.40812        1.98917        0.72298
H          3.41070       -1.98109       -0.73702
H          0.96588       -2.04938       -0.76349
C          4.95775       -0.00497        0.02134
H          5.35825       -0.67448       -0.76825
H          5.31261       -0.36113        1.01101
H          5.35678        1.01497       -0.15970
C         -4.95775        0.00497        0.02102
H         -5.35821        0.67453       -0.76854
H         -5.31268        0.36105        1.01070
H         -5.35677       -1.01496       -0.16012
