54
energy:     -1114.4956816100
N          3.43659       -1.97457       -0.86973
C          2.62980       -3.12656       -1.11533
C          1.33409       -3.14023       -0.80834
C          0.71870       -1.92595       -0.20970
C          2.87120       -0.77467       -0.29488
C          1.56830       -0.73546        0.02103
C         -0.71886       -1.92706        0.20912
C         -1.33399       -3.14007        0.80819
C         -2.63017       -3.12685        1.11547
N         -3.43616       -1.97356        0.86959
C         -2.87282       -0.77482        0.29643
C         -1.56586       -0.73503       -0.02097
H          3.06356       -4.01029       -1.57004
H          0.73433       -4.02396       -0.99470
H          1.12971        0.15132        0.48246
H         -0.73434       -4.02398        0.99475
H         -3.06360       -4.01021        1.57003
H         -1.13044        0.15039       -0.48183
C          4.79495       -1.98358       -1.38807
H          5.12335       -0.97017       -1.69580
H          5.47421       -2.41736       -0.62866
H          4.84581       -2.59927       -2.31013
C         -4.79603       -1.98393        1.38769
H         -5.12320       -0.97021        1.69581
H         -5.47380       -2.41712        0.62864
H         -4.84556       -2.59931        2.31005
C          3.68798        0.41465       -0.00514
C         -3.68788        0.41550        0.00533
C         -3.22661        1.68440        0.37986
C         -4.91289        0.28776       -0.66429
C         -5.67029        1.41855       -0.95510
C         -3.98528        2.81154        0.09643
C         -5.20959        2.69067       -0.57502
H         -5.26510       -0.68503       -0.98640
H         -6.60534        1.30684       -1.49053
H         -2.28918        1.78828        0.91369
H         -3.62405        3.78247        0.41396
C         -6.02394        3.89889       -0.88294
H         -5.39494        4.81500       -0.84512
H         -6.83672        3.98671       -0.13209
H         -6.46487        3.81879       -1.89843
C          3.22610        1.68239       -0.37982
C          4.91217        0.28566        0.66409
C          5.67015        1.41699        0.95580
C          5.20914        2.68838        0.57508
C          3.98402        2.81132       -0.09706
H          2.28947        1.78843       -0.91377
H          3.62382        3.78172       -0.41420
H          5.26542       -0.68489        0.98695
H          6.60497        1.30698        1.48984
C          6.02368        3.89944        0.88240
H          6.46482        3.81862        1.89827
H          5.39488        4.81492        0.84523
H          6.83656        3.98679        0.13194
