37
energy:      -692.0355744630
N          3.77049       -0.20823       -0.04827
C          3.03906        0.89288        0.48792
C          1.70978        0.90960        0.49087
C          3.08059       -1.31453       -0.59776
C          1.75032       -1.36981       -0.63802
C          0.97646       -0.23995       -0.08277
H          3.66752       -2.13382       -0.99558
H          1.23574       -2.21288       -1.05803
H          3.56656        1.73134        0.90455
H          1.15591        1.73723        0.89677
C         -0.51839       -0.26035       -0.09446
C         -1.25754       -1.50250        0.19765
C         -2.58048       -1.48542        0.16520
C         -1.27580        0.96339       -0.42571
C         -2.62101        0.90628       -0.44477
N         -3.30144       -0.29984       -0.14374
H         -0.73580        1.86103       -0.65345
H         -0.71385       -2.40336        0.43232
H         -3.13905       -2.38277        0.37562
C         -4.74546       -0.38397       -0.14334
C          5.21642       -0.24909       -0.05612
C         -3.40119        2.14237       -0.79220
H         -3.92701        1.96264       -1.74856
H         -2.72842        2.99788       -0.88536
H         -4.15118        2.33382        0.00021
C         -5.30736       -0.13339        1.24970
H         -5.05207       -1.39162       -0.49658
H         -5.18146        0.32733       -0.87052
H         -4.92634       -0.87981        1.97897
H         -6.41158       -0.21124        1.21896
H         -5.04674        0.88236        1.62398
C          5.91344        0.96463        0.53999
H          5.54556       -0.36191       -1.11355
H          5.53239       -1.15299        0.51162
H          5.66926        1.89786       -0.01798
H          7.00864        0.81545        0.47478
H          5.65826        1.10248        1.61571
