37
energy:      -766.9850192560
C          3.50863        0.09112        0.00758
C          2.82702       -1.11794        0.15083
C          2.80486        1.24799       -0.29013
C          1.41387       -1.12909        0.07491
N          1.44304        1.24933       -0.32344
C          0.71694        0.09800       -0.04207
C          0.69163       -2.33547        0.07529
C         -0.69154       -2.33608       -0.07577
C         -1.41444       -1.13177       -0.07731
C         -0.71650        0.10244        0.03585
C         -2.82640       -1.11830       -0.15230
C         -3.50759        0.09293       -0.00979
C         -2.80409        1.24880        0.28546
N         -1.44504        1.25048        0.32107
H          4.58935        0.12908        0.04013
H          3.35833        2.14963       -0.52590
H          1.19466       -3.29226        0.12980
H         -1.19517       -3.29189       -0.12932
C         -0.78318        2.41083        0.94606
C          0.00061        3.26459       -0.00022
H         -0.10116        2.01778        1.73723
H         -1.49525        3.06185        1.50078
C          0.78413        2.41214       -0.94895
H          0.67703        3.91223        0.59836
H         -0.67515        3.91192       -0.59904
H          1.49600        3.06288       -1.50245
H          0.10089        2.01835       -1.73885
H         -4.58969        0.12918       -0.03934
H         -3.35705        2.14900        0.52348
C         -3.62040       -2.38036       -0.35911
H         -3.28636       -2.88313       -1.29133
H         -4.70688       -2.16947       -0.45713
H         -3.47276       -3.05865        0.50501
C          3.62024       -2.38005        0.35932
H          4.70623       -2.16934        0.45703
H          3.47261       -3.05935       -0.50531
H          3.28599       -2.88334        1.29129
