31
energy:      -613.4664129390
N          3.82977        0.09677       -0.00170
C          3.20267       -1.04981        0.58924
C          1.87580       -1.18036        0.58790
C          3.05657        1.14672       -0.59675
C          1.72305        1.07439       -0.63110
C          1.04157       -0.11226       -0.03974
H          3.54757        2.01584       -1.02090
H          1.14210        1.87623       -1.08395
H          3.80998       -1.82921        1.04160
H          1.41288       -2.05570        1.03298
C         -0.46097       -0.23296       -0.05658
C         -1.11458       -1.53623       -0.36290
C         -2.44302       -1.61387       -0.37107
C         -1.32157        0.94977        0.22933
C         -2.65659        0.81645        0.20036
N         -3.25514       -0.46294       -0.09697
H         -0.85785        1.90707        0.45402
H         -0.51178       -2.41546       -0.57446
H         -2.90909       -2.56992       -0.59260
C         -4.69730       -0.59805       -0.12506
H         -5.11866        0.07002       -0.90225
H         -5.11560       -0.33702        0.86794
H         -5.00218       -1.63968       -0.36390
C          5.26677        0.22072        0.05090
H          5.74121       -0.78058       -0.02289
H          5.55933        0.69615        1.01047
H          5.63737        0.83454       -0.79750
C         -3.52296        2.01732        0.48056
H         -2.92284        2.93011        0.68511
H         -4.15657        1.81090        1.36589
H         -4.16448        2.21642       -0.40175
