29
energy:     -1461.6757595900
C          2.32063       -1.63548        0.00528
C          2.59244       -0.27794       -0.03524
C          1.01462       -2.05835       -0.08126
C         -0.02095       -1.13940       -0.18302
C          0.27985        0.24955       -0.22704
C          1.59995        0.67160       -0.16225
H          3.13763       -2.34457        0.08922
H          0.78118       -3.11862       -0.06716
H          1.84191        1.72360       -0.19653
C         -1.41031       -1.58213       -0.26097
C         -2.49436       -0.60875       -0.07290
C         -2.19289        0.78715       -0.11918
C         -0.80437        1.21123       -0.36234
C         -3.81365       -1.00169        0.17301
C         -4.81191       -0.06198        0.37808
C         -3.22400        1.70414        0.09143
C         -4.51924        1.27972        0.33963
O         -1.66613       -2.77988       -0.45439
O         -0.55454        2.38711       -0.67123
O         -4.14746       -2.29910        0.24504
H         -5.06832       -2.49713        0.47038
O         -2.98331        3.02540        0.08924
H         -3.73152        3.60172        0.30351
S          4.20686        0.22863        0.11216
O          4.55778        0.39687        1.77020
O          4.45824        1.58618       -0.58426
O          5.18551       -0.80711       -0.48965
H         -5.82791       -0.37974        0.57699
H         -5.30819        2.00151        0.50938
