27
energy:      -801.6940566520
C          0.06059       -2.04396        0.00003
C          0.81284       -0.86137       -0.00005
C         -1.32617       -1.99109        0.00002
C         -1.98367       -0.76515       -0.00005
C         -1.23429        0.43084       -0.00014
C          0.15878        0.37275       -0.00012
H          0.72655        1.29777       -0.00016
H          0.55999       -3.00287        0.00008
H         -1.90435       -2.90728        0.00009
C         -3.46174       -0.71198        0.00022
C         -4.11499        0.60785        0.00017
C         -1.92609        1.73560        0.00004
C         -3.39398        1.75582        0.00010
H         -3.88151        2.71634        0.00028
H         -5.19355        0.63535        0.00040
O         -4.13274       -1.72947        0.00023
O         -1.29325        2.78409       -0.00003
C          2.28891       -0.95785       -0.00005
O          2.87858        0.30272       -0.00022
H          2.61728       -1.52851       -0.89754
H          2.61728       -1.52829        0.89759
C          4.23045        0.46593        0.00010
O          4.68530        1.59581       -0.00018
C          5.11072       -0.73381        0.00017
H          4.90157       -1.36436       -0.89465
H          4.90129       -1.36403        0.89515
H          6.16411       -0.43413        0.00029
