25
energy:      -688.4224243830
C         -3.61698       -1.21317       -0.00003
C         -3.91265        0.15169        0.00015
C         -2.29070       -1.64300       -0.00017
C         -1.24551       -0.70449        0.00026
C         -2.88058        1.09576        0.00068
H         -4.41715       -1.94150        0.00003
H         -4.94295        0.48110       -0.00000
H         -2.07546       -2.70478       -0.00032
C         -1.54232        0.67198        0.00002
H         -3.12536        2.14884        0.00025
C          0.16596       -1.14723       -0.00052
C          1.25969       -0.14206       -0.00118
C          0.96608        1.18082        0.00010
C         -0.43334        1.65272       -0.00100
O          0.43575       -2.34021       -0.00090
O         -0.66189        2.85358        0.00044
C          2.68723       -0.63857        0.00013
O          3.59744        0.43910        0.00052
H          2.81719       -1.26051       -0.91455
H          2.81684       -1.26071        0.91462
C          4.90964       -0.05542        0.00018
H          5.59739        0.81488        0.00012
H          5.11974       -0.64276       -0.92192
H          5.11978       -0.64288        0.92206
H          1.75341        1.92833       -0.00035
