21
energy:      -573.9881504040
C         -2.74302       -1.35227        0.00002
C         -3.12171       -0.00376        0.00002
C         -1.39791       -1.69438        0.00000
C         -0.41587       -0.70158        0.00007
C         -0.79378        0.65931        0.00001
C         -2.15175        0.99896        0.00005
H         -3.49617       -2.12713        0.00008
H         -4.17021        0.26102        0.00008
H         -1.10370       -2.74186       -0.00002
H         -2.45083        2.03806       -0.00000
C          1.01174       -1.05952       -0.00001
C          2.03861        0.00413        0.00007
C          1.66959        1.30551        0.00013
C          0.25041        1.70409        0.00005
H          2.41546        2.09925        0.00001
O          1.35403       -2.23752        0.00003
O         -0.05040        2.89252        0.00001
C          3.47899       -0.40112        0.00005
H          3.67833       -1.02398       -0.89780
H          3.67824       -1.02401        0.89789
H          4.15319        0.47478        0.00010
