21
energy:     -1033.4461406000
C          1.21920       -1.49577        0.42920
C          1.63027       -0.15370        0.51196
C         -0.12037       -1.80548        0.21623
C         -1.06578       -0.79129        0.07751
C         -0.66449        0.55144        0.16434
C          0.68122        0.86204        0.38410
C         -2.49288       -1.12787       -0.15821
C         -3.45170       -0.01936       -0.30439
C         -3.06117        1.27615       -0.22281
C         -1.65826        1.64552        0.01393
H          1.94316       -2.28669        0.54045
H         -0.43469       -2.84123        0.15479
H          0.98364        1.90241        0.43955
H         -4.48435       -0.27423       -0.47879
H         -3.77472        2.07658       -0.33089
C          3.07184        0.17697        0.73928
Cl         3.99145        0.09674       -0.77373
H          3.52460       -0.53311        1.45800
H          3.17513        1.20296        1.14532
O         -2.86530       -2.28178       -0.22881
O         -1.32862        2.81372        0.09625
