18
energy:      -534.7008122980
C         -2.67335        0.70143       -0.00022
C         -1.46027        1.39979        0.00021
C         -0.25728        0.70650        0.00030
C         -0.25728       -0.70647        0.00013
C         -1.46028       -1.39979        0.00029
C         -2.67335       -0.70142       -0.00013
H         -3.60884       -1.24071       -0.00052
H         -3.60884        1.24071       -0.00056
H         -1.46981        2.48270       -0.00009
H         -1.46981       -2.48270        0.00001
C          1.02380        1.43562        0.00012
C          2.29162        0.67577       -0.00023
C          1.02379       -1.43568        0.00004
C          2.29162       -0.67575       -0.00044
O          1.05423        2.66200       -0.00003
O          1.05421       -2.66197       -0.00027
H          3.21821       -1.22408       -0.00059
H          3.21823        1.22407       -0.00061
