21
energy:     -1157.7951771300
C          3.74793       -1.48938       -0.00575
C          2.37430       -1.74422       -0.01470
C          1.45964       -0.67716       -0.01859
C          1.93350        0.64991       -0.01456
C          4.21793       -0.17538       -0.00065
C          3.31790        0.89175       -0.00471
C         -0.00267       -0.92598       -0.02072
C         -0.94672        0.21956       -0.01294
C         -0.49013        1.48430       -0.01270
C          0.96060        1.77040       -0.01609
H          4.44839       -2.31480       -0.00144
H          5.28316        0.01713        0.00808
H          2.02589       -2.76888       -0.01740
H          3.69879        1.90651       -0.00019
H         -1.18892        2.31529       -0.00344
O         -0.43386       -2.06925       -0.02219
O          1.34605        2.92915       -0.01194
S         -2.71524       -0.09776        0.01895
O         -3.34774       -0.98221        1.34594
O         -3.55130        1.18920       -0.04817
O         -3.18845       -0.84304       -1.23790
