22
energy:      -495.5859356570
C          0.56014        2.92771        1.11074
C         -0.05236        3.58316       -0.09308
C          0.51536        1.42793        1.14913
C          0.00554        0.73478        0.11210
C         -0.56091        2.84469       -1.08108
N         -0.51766        1.42173       -1.02610
C         -0.00554       -0.73478        0.11210
C         -0.51536       -1.42793        1.14913
C         -0.56014       -2.92771        1.11074
C          0.05236       -3.58316       -0.09308
N          0.51766       -1.42173       -1.02610
C          0.56091       -2.84469       -1.08108
H          1.02426        3.51584        1.92886
H          0.94326        0.90699        2.00313
H         -0.08318        4.67087       -0.15417
H         -1.01557        3.32964       -1.94435
H         -0.94326       -0.90699        2.00313
H         -1.02426       -3.51584        1.92886
H          1.01557       -3.32964       -1.94435
H          0.08318       -4.67087       -0.15417
H         -0.93919        0.88194       -1.79902
H          0.93919       -0.88194       -1.79902
