30
energy:      -758.4549335150
N         -3.50472       -0.54289       -0.27277
C         -2.80330       -1.63011       -0.62014
C         -1.42939       -1.66585       -0.52059
C         -2.85954        0.55830        0.18732
C         -1.48175        0.57620        0.29792
C         -0.73787       -0.54830       -0.05700
H         -1.01781        1.47260        0.68785
H         -3.37462       -2.47263       -0.98532
H         -0.91707       -2.56544       -0.83482
C          0.73787       -0.54830        0.05700
C          1.42939       -1.66585        0.52059
C          2.80330       -1.63011        0.62014
C          1.48175        0.57620       -0.29792
C          2.85954        0.55828       -0.18740
N          3.50472       -0.54289        0.27276
H          1.01781        1.47260       -0.68785
H          0.91707       -2.56543        0.83483
H          3.37462       -2.47263        0.98532
C          4.97340       -0.53541        0.38713
H          5.40716       -0.35624       -0.59662
H          5.30005       -1.49813        0.76880
H          5.27451        0.25935        1.06955
C         -4.97340       -0.53541       -0.38713
H         -5.30003       -1.49803       -0.76905
H         -5.27454        0.25952       -1.06932
H         -5.40716       -0.35652        0.59668
C          3.64057        1.68884       -0.55110
C         -3.64057        1.68878        0.55125
N         -4.25518        2.61426        0.85178
N          4.25519        2.61424       -0.85187
