24
energy:      -613.2713683220
C          3.27917       -0.70233       -0.00035
C          3.27917        0.70233       -0.00037
C          2.07344       -1.39333        0.00001
C          0.85764       -0.70413        0.00037
C          0.85764        0.70414        0.00032
C          2.07344        1.39333       -0.00006
C         -0.40279       -1.43789       -0.00029
C         -1.68353       -0.68277        0.00033
C         -1.68353        0.68277        0.00026
C         -0.40279        1.43790       -0.00004
H          4.21588       -1.24104       -0.00059
H          4.21588        1.24104       -0.00062
H          2.07429       -2.48159       -0.00003
H          2.07429        2.48159       -0.00013
O         -0.40775       -2.66567        0.00002
O         -0.40775        2.66567        0.00016
C         -2.96836       -1.45915       -0.00015
H         -2.75978       -2.55501        0.00002
H         -3.56215       -1.22444       -0.90529
H         -3.56281       -1.22423        0.90444
C         -2.96836        1.45915       -0.00018
H         -3.56245        1.22402       -0.90501
H         -2.75978        2.55500       -0.00058
H         -3.56252        1.22465        0.90472
