41
energy:      -769.4045120550
C          3.56006       -0.07429       -0.20017
C          2.87281       -1.26237        0.39886
C          2.82176        0.94688       -0.65612
N          1.40633        0.92725       -0.55141
C          1.40422       -1.26753        0.43610
C          0.71924       -0.21294       -0.02374
C         -0.71922       -0.21293        0.02372
N         -1.40638        0.92731        0.55142
C         -1.40423       -1.26751       -0.43612
C         -2.87280       -1.26233       -0.39891
C         -3.56009       -0.07433        0.20016
C         -2.82168        0.94689        0.65609
C          0.64855        2.03246       -1.10742
C         -0.00002        2.87820       -0.00019
H         -0.13269        1.62357       -1.78848
H          1.28185        2.69369       -1.73102
C         -0.64883        2.03212        1.10774
H         -0.75660        3.52862       -0.48085
H          0.75712        3.52911        0.48163
H         -1.28194        2.69365        1.73113
H          0.13274        1.62333        1.78841
H         -0.88359       -2.11926       -0.87475
H         -3.29034        1.81169        1.09650
H          0.88360       -2.11925        0.87476
C         -3.65624       -2.45426       -0.90950
H         -2.96681       -3.22397       -1.31128
H         -4.33873       -2.10852       -1.70904
H         -4.24562       -2.87963       -0.07394
C         -5.03784       -0.05216        0.29703
H         -5.38665       -0.91056        0.90889
H         -5.46987       -0.14167       -0.72196
H         -5.37596        0.89308        0.75753
C          5.03784       -0.05216       -0.29702
H          5.46986       -0.14168        0.72196
H          5.37596        0.89308       -0.75751
H          5.38666       -0.91055       -0.90890
C          3.65624       -2.45426        0.90951
H          4.24577       -2.87953        0.07401
H          2.96680       -3.22404        1.31113
H          4.33859       -2.10852        1.70917
H          3.29034        1.81170       -1.09648
