23
energy:     -3488.3634879100
C         -5.01967        0.55849       -0.62843
C         -4.92540       -0.83087       -0.68558
C         -3.92115        1.31656       -0.21590
C         -2.71012        0.69041        0.13349
C         -2.62621       -0.71503        0.08672
C         -3.73867       -1.46531       -0.32097
H         -5.93975        1.05076       -0.91291
H         -4.00441        2.39593       -0.19391
H         -5.77428       -1.41847       -1.00957
H         -3.67860       -2.54591       -0.35524
N         -1.59436        1.50637        0.46689
C         -0.25241        1.04306        0.36774
C          0.06869       -0.32760        0.34266
S         -1.15748       -1.60879        0.58296
C          0.77861        1.99147        0.22989
C          2.09946        1.58055        0.04632
C          2.41040        0.22280        0.00654
C          1.39992       -0.72782        0.16689
H          0.54901        3.04758        0.24014
H          2.87960        2.32180       -0.07803
H          1.64897       -1.78131        0.14874
H         -1.74597        2.52556        0.52696
Br         4.21554       -0.33906       -0.26286
