23
energy:     -1374.5694683100
C          4.35402        0.69328       -0.55621
C          4.31674       -0.69818       -0.64751
C          3.22440        1.39479       -0.13715
C          2.03854        0.71280        0.18374
C          2.00974       -0.69297        0.10306
C          3.15281       -1.38854       -0.31023
H          5.25475        1.23052       -0.82002
H          3.25825        2.47618       -0.08997
H          5.19175       -1.24161       -0.97761
H          3.13654       -2.46979       -0.37105
N          0.88671        1.47430        0.51814
C         -0.42986        0.96405        0.34919
C         -0.69296       -0.41777        0.28814
S          0.57168       -1.65156        0.56824
C         -1.48457        1.87435        0.17778
C         -2.77854        1.41940       -0.07574
C         -3.03554        0.05001       -0.14836
C         -1.99850       -0.86513        0.04117
H         -1.29461        2.93983        0.21190
H         -3.57755        2.13344       -0.22533
H         -2.20330       -1.92738       -0.00431
H          0.99692        2.49606        0.61016
Cl        -4.65984       -0.52215       -0.47826
