27
energy:      -665.0937713610
H          0.32179        1.98248       -1.50670
C          0.02622        1.96556       -0.44475
C          3.46247       -1.58294       -0.26862
C          2.02573       -1.57684       -0.26500
C         -2.14311        0.84972       -0.20218
N         -0.74450        0.79556       -0.19665
H         -0.56933        2.85783       -0.24079
H         -2.54228        1.82960       -0.39113
C          4.11129       -0.33242       -0.00928
C         -0.13208       -0.44103        0.02399
C          1.34502       -0.46196       -0.01885
C         -2.89121       -0.23141        0.01782
C          3.39307        0.76825        0.20341
H          5.18922       -0.30507       -0.00421
C         -0.84496       -1.53577        0.27018
C         -2.28197       -1.50364        0.27187
N          1.99559        0.75463        0.20021
C          1.25729        1.94755        0.45031
H          3.81934        1.73453        0.39152
H          1.87715        2.82180        0.24602
H          0.96172        1.97432        1.51201
C         -4.31253       -0.13770        0.00013
N         -5.45972       -0.02824       -0.02237
H          4.00881       -2.47214       -0.46161
H          1.53938       -2.50816       -0.48615
H         -0.38958       -2.48054        0.49296
H         -2.85546       -2.37587        0.46525
