30
energy:     -1068.8271011000
C         -4.61533        0.97442        0.71411
C         -4.66760       -0.40310        0.93851
C         -3.48561        1.54318        0.13765
C         -2.38491        0.74634       -0.20878
C         -2.44463       -0.64771        0.00700
C         -3.58833       -1.20958        0.58353
H         -5.45437        1.60067        0.98227
H         -3.44255        2.61569       -0.01403
H         -5.54572       -0.84449        1.38027
H         -3.63721       -2.27890        0.74898
N         -1.22312        1.37671       -0.70688
C          0.05748        0.78681       -0.57678
C          0.23078       -0.59917       -0.40575
S         -1.13211       -1.75207       -0.48635
C          1.17276        1.62600       -0.55530
C          2.44279        1.10601       -0.35450
C          2.62346       -0.28035       -0.18041
C          1.51004       -1.12205       -0.20706
H          1.05216        2.69557       -0.67243
H          3.27167        1.79631       -0.33676
H          1.64289       -2.19034       -0.08174
H         -1.26573        2.39261       -0.89299
O          3.84948       -0.83557       -0.01485
C          5.03655       -0.13653        0.06671
C          5.20750        0.49619        1.44646
H          5.09016        0.62287       -0.74214
H          5.86853       -0.84574       -0.10375
H          6.16799        1.05130        1.47401
H          4.38430        1.20246        1.68102
H          5.22523       -0.29689        2.22340
