33
energy:      -726.6968307700
C         -4.81017       -0.06306        0.09339
C         -4.25085       -1.43791        0.27480
C         -2.76224       -1.57204        0.21098
C         -3.99688        0.97955       -0.12174
N         -2.57687        0.80394       -0.19173
C         -1.98149       -0.49091       -0.00962
C         -0.48974       -0.57261       -0.03052
N          0.24276        0.65180        0.13077
C         -1.71995        1.94575       -0.48621
C         -0.48269        1.88675        0.40636
H         -2.26605        2.90607       -0.34809
H         -1.37866        1.88633       -1.54186
H         -0.82213        1.88753        1.46519
H          0.16627        2.77673        0.24823
C          0.16660       -1.73616       -0.22727
C          1.65805       -1.76692       -0.28175
C          2.37673       -0.47117       -0.09299
C          1.67309        0.66772        0.09337
H         -5.88437        0.08493        0.13118
H         -2.34234       -2.55445        0.38257
H         -0.35588       -2.67106       -0.38254
H         -4.89772       -2.31449        0.48532
O          3.73873       -0.49033       -0.10309
C          4.55428        0.59900        0.11906
C          6.00398        0.15453        0.06383
H          4.34887        1.02374        1.12630
H          4.37716        1.36909       -0.65997
H          6.19388       -0.61144        0.84620
H          6.66565        1.02792        0.24118
H          6.22727       -0.27829       -0.93454
H          2.20496       -2.71642       -0.46146
H          2.18719        1.61124        0.24019
H         -4.43182        1.96581       -0.26333
