33
energy:      -726.6919249810
C         -4.22429       -0.86220        0.02221
C         -3.39873       -1.96937       -0.56071
C         -3.64386        0.23677        0.51897
N         -2.22824        0.39215        0.48447
C         -1.91750       -1.78340       -0.52571
C         -1.38857       -0.64828       -0.03868
C          0.08383       -0.46246       -0.04265
N          0.62351        0.78123       -0.51461
C          0.89597       -1.44066        0.38549
C          2.35635       -1.24671        0.40042
C          2.90358       -0.10114       -0.06292
C          2.04356        0.98499       -0.58814
C         -1.62226        1.56734        1.09783
C         -1.02819        2.50951        0.04623
H         -0.83160        1.22590        1.80865
H         -2.34634        2.15052        1.70543
C         -0.24868        1.79840       -1.06179
H         -0.36281        3.22405        0.58095
H         -1.83012        3.09337       -0.45270
H          0.31527        2.56935       -1.63050
H         -0.93735        1.31678       -1.79065
H          0.48375       -2.37500        0.76733
H          2.96752       -2.05235        0.79337
H          2.44601        1.94795       -0.97290
H         -3.85348       -2.87922       -0.99789
H         -5.30314       -0.95526        0.04444
H         -1.28141       -2.55876       -0.94321
H         -4.26036        1.01811        0.94012
O          4.24030        0.12531       -0.08447
C          5.19279       -0.75644        0.33584
H          6.17944       -0.28193        0.17697
H          5.12497       -1.68620       -0.26705
H          5.04868       -0.96863        1.41579
