30
energy:      -687.4111476960
C          4.31607       -0.52037       -0.00300
C          3.55601       -1.78752       -0.24653
C          2.06638       -1.69112       -0.22356
C          3.66915        0.63299        0.20237
N          2.24030        0.67653        0.20308
C          1.46449       -0.50561       -0.00081
C         -0.01003       -0.35718       -0.00525
N         -0.53505        0.96198       -0.19689
C          1.57078        1.94861        0.46865
C          0.36405        2.07210       -0.45108
H          2.25142        2.81250        0.31953
H          1.20128        1.95723        1.51827
H          0.70592        2.03406       -1.50756
H         -0.15491        3.04202       -0.28251
C         -0.84336       -1.39878        0.19757
C         -2.29989       -1.19844        0.20288
C         -2.83419        0.02778        0.00952
C         -1.95305        1.20952       -0.18304
H          5.39646       -0.54061        0.01311
H          4.23888        1.53825        0.38826
H         -2.34123        2.22386       -0.40236
H          1.50112       -2.59239       -0.42438
H         -0.47097       -2.39948        0.38332
H          4.06008       -2.75347       -0.44403
H         -2.92495       -2.07185        0.36146
O         -4.16490        0.25727       -0.02433
C         -5.12857       -0.70136        0.12961
H         -6.11519       -0.20970        0.03249
H         -5.03322       -1.15521        1.13799
H         -5.01992       -1.47212       -0.66418
