25
energy:     -1119.4905890500
C         -4.57320        0.67413       -0.55862
C         -4.53228       -0.71791       -0.62897
C         -3.44080        1.38130       -0.17806
C         -2.26943        0.70207        0.16017
C         -2.23115       -0.68492        0.09851
C         -3.35578       -1.39498       -0.31026
H         -5.47829        1.20513       -0.80211
H         -3.46284        2.46287       -0.14699
H         -5.40909       -1.27273       -0.92428
H         -3.31765       -2.46931       -0.36197
N         -1.13854        1.45714        0.50808
C          0.16826        0.98197        0.34265
C          0.44464       -0.37987        0.28660
S         -0.80392       -1.60012        0.63117
C          1.19710        1.91496        0.18466
C          2.49657        1.48479       -0.01600
C          2.76838        0.11855       -0.09465
C          1.73907       -0.80839        0.04981
H          0.98011        2.97472        0.21958
H          3.30120        2.19933       -0.12156
H          1.96337       -1.86503       -0.00310
H         -1.25350        2.46603        0.54346
N          4.08894       -0.32313       -0.29973
O          4.98853        0.45834       -0.41904
O          4.34002       -1.49304       -0.36604
