32
energy:      -651.5378178960
C          3.54255       -0.22936       -0.00776
C          2.88483       -1.52733       -0.26245
C          1.42315       -1.56705       -0.24958
C          2.79157        0.86867        0.19508
N          1.36899        0.79869        0.18550
C          0.72272       -0.46900       -0.00584
C         -0.72272       -0.46900        0.00584
N         -1.36899        0.79869       -0.18549
C          0.62456        1.98418        0.44295
C         -0.62456        1.98418       -0.44295
H          1.22699        2.88266        0.23422
H          0.31917        1.99609        1.51223
H         -0.31917        1.99609       -1.51223
H         -1.22699        2.88266       -0.23422
C         -1.42315       -1.56705        0.24958
C         -2.88483       -1.52733        0.26245
C         -3.54255       -0.22935        0.00776
C         -2.79157        0.86867       -0.19508
H          3.24021        1.81789        0.38098
H         -3.24021        1.81789       -0.38098
H          0.94989       -2.50619       -0.45909
H         -0.94989       -2.50618        0.45910
H         -3.45883       -2.44102        0.45251
H          3.45883       -2.44102       -0.45251
C         -5.02934       -0.17992       -0.00673
H         -5.42796       -0.52632        0.96865
H         -5.42617       -0.85907       -0.78944
H         -5.37784        0.84325       -0.20137
C          5.02934       -0.17991        0.00673
H          5.37784        0.84325        0.20137
H          5.42796       -0.52633       -0.96865
H          5.42617       -0.85906        0.78944
