22
energy:    -10905.0420483000
C          2.82062        1.26486        0.00024
C          3.56905        0.00000        0.00026
C          2.82062       -1.26486        0.00024
C          1.48281        1.26645        0.00019
C          0.68738       -0.00000        0.00024
C          1.48282       -1.26646        0.00019
H          1.00378        2.23175        0.00015
H          1.00379       -2.23176        0.00015
O          4.79670        0.00001        0.00003
C         -0.68739       -0.00000        0.00032
C         -1.48291        1.26650        0.00021
C         -2.82062        1.26487        0.00050
C         -3.56822        0.00000        0.00070
C         -2.82062       -1.26487        0.00050
C         -1.48292       -1.26650        0.00021
H         -1.00377        2.23169       -0.00004
H         -1.00378       -2.23170       -0.00004
O         -4.79753        0.00002        0.00017
Br         3.76645        2.91697       -0.00002
Br         3.76646       -2.91696       -0.00002
Br        -3.76647        2.91704       -0.00013
Br        -3.76648       -2.91704       -0.00013
