30
energy:      -650.3434637360
N          3.44869       -0.00774       -0.00000
C          2.55872       -1.12061       -0.00000
C          1.24198       -0.93360       -0.00000
C          0.69455        0.44014        0.00000
C          2.96673        1.33368        0.00000
C          1.66331        1.58859        0.00000
C          0.32047       -2.06350       -0.00000
C         -0.99472       -1.86219       -0.00000
C         -1.58076       -0.49842        0.00000
C         -0.77824        0.59483        0.00000
N         -3.00496       -0.34493        0.00000
C         -3.57996        0.95076        0.00000
C         -1.35988        1.96323        0.00000
C         -2.83116        2.06321        0.00000
C         -3.87085       -1.49917        0.00000
H         -3.69124       -2.10488       -0.91301
H         -4.93278       -1.18724        0.00000
H         -3.69124       -2.10488        0.91301
C          4.86654       -0.23456       -0.00000
H          5.09697       -1.31808       -0.00000
H          5.29983        0.22967        0.90774
H          5.29983        0.22967       -0.90774
H          2.95172       -2.12753       -0.00000
H          3.66950        2.15145       -0.00000
H          1.32076        2.61260        0.00000
H          0.70720       -3.06542       -0.00000
H         -1.64234       -2.72505       -0.00000
H         -0.76362        2.88794       -0.00000
H         -3.28252        3.02962        0.00000
H         -4.65427        1.04332        0.00000
