29
energy:      -612.2344534350
C          3.53017       -0.48900        0.05421
C          2.82978       -1.66223        0.61134
C          2.84093        0.53440       -0.45648
N          1.41674        0.53925       -0.45614
C          1.36194       -1.65400        0.55339
C          0.71853       -0.61949        0.02962
C         -0.71853       -0.61949       -0.02962
N         -1.41674        0.53925        0.45615
C         -1.36194       -1.65399       -0.55340
C         -2.82978       -1.66223       -0.61134
C         -3.53017       -0.48900       -0.05422
C         -2.84093        0.53440        0.45648
C          0.72369        1.62104       -1.05961
C          0.00000        2.46680       -0.00000
H         -0.01004        1.21503       -1.78977
H          1.40827        2.26898       -1.63593
C         -0.72369        1.62104        1.05961
H         -0.71788        3.12665       -0.52778
H          0.71788        3.12665        0.52778
H         -1.40827        2.26898        1.63593
H          0.01004        1.21503        1.78977
H         -0.83639       -2.49345       -0.96135
H         -3.37332       -2.51701       -1.02772
H         -4.60205       -0.48489       -0.07361
H         -3.32807        1.38447        0.86169
H          3.37332       -2.51701        1.02772
H          0.83639       -2.49345        0.96136
H          4.60205       -0.48489        0.07361
H          3.32807        1.38447       -0.86169
