32
energy:      -651.5144032860
C          0.00165        3.57628       -0.73519
C         -0.71087        2.85169       -1.83248
C         -0.63323        1.36531       -1.79524
C          0.61590        2.90089        0.24613
N          0.60152        1.46829        0.27981
C         -0.01256        0.72963       -0.78617
H          0.02541        4.65948       -0.74178
H          1.13252        3.45480        1.02056
H         -1.23692        3.38286       -2.65242
H         -1.11918        0.79428       -2.58597
C          0.01256       -0.72963       -0.78617
N         -0.60152       -1.46829        0.27981
C          1.34735        0.78986        1.34445
C          0.47265        0.60969        2.58807
H          2.20252        1.44459        1.62426
H          1.82014       -0.16125        1.01875
C         -1.34735       -0.78986        1.34445
C         -0.47265       -0.60969        2.58807
H         -2.20252       -1.44459        1.62426
H         -1.82014        0.16125        1.01875
H         -0.10414        1.54746        2.74049
H          1.12988        0.47996        3.47450
H          0.10414       -1.54746        2.74049
H         -1.12988       -0.47996        3.47450
C          0.63323       -1.36531       -1.79524
C          0.71087       -2.85169       -1.83248
C         -0.00165       -3.57628       -0.73519
H          1.11918       -0.79428       -2.58597
H          1.23692       -3.38286       -2.65242
C         -0.61590       -2.90089        0.24613
H         -1.13252       -3.45480        1.02056
H         -0.02541       -4.65948       -0.74178
