24
energy:      -571.7608677580
C         -0.00000        3.50591       -0.29924
C         -0.00000        2.80792        0.90537
C          0.00000        1.40557        0.90000
C         -0.00000        2.80359       -1.49852
N          0.00000        1.44497       -1.50462
C          0.00000        0.71476       -0.34008
C          0.00000        0.69704        2.10833
C         -0.00000       -0.69704        2.10833
C         -0.00000       -1.40557        0.90000
C         -0.00000       -0.71476       -0.34008
H         -0.00000        4.58849       -0.30689
H          0.00000        3.34086       -2.43869
H         -0.00000        3.35892        1.83779
H         -0.00000        1.22662        3.05415
H          0.00000       -1.22662        3.05415
C          0.00000       -2.80792        0.90537
C          0.00000       -3.50591       -0.29924
N         -0.00000       -1.44497       -1.50462
C          0.00000       -2.80359       -1.49852
H         -0.00000       -3.34086       -2.43869
H          0.00000       -4.58849       -0.30689
H          0.00000       -3.35892        1.83779
H          0.00000        1.00025       -2.44034
H         -0.00000       -1.00025       -2.44034
