31
energy:      -688.3908432360
C          3.54547       -0.32188       -0.06307
C          2.81601       -1.47199        0.16721
C          2.87679        0.86452       -0.30230
C          1.42648       -1.43193        0.14616
N          1.50865        0.93923       -0.27632
C          0.73000       -0.18449       -0.01364
C          0.73245       -2.63395        0.26111
C         -0.63506       -2.66175        0.11183
C         -1.36480       -1.48457       -0.02994
C         -0.72544       -0.19763        0.01233
C         -2.74511       -1.58584       -0.20342
C         -3.51502       -0.45192       -0.28563
C         -2.92279        0.77421       -0.08618
N         -1.57238        0.92268        0.10172
H          4.62765       -0.35373       -0.08853
H          3.47960        1.74002       -0.51887
H          3.34997       -2.40521        0.31188
H          1.26427       -3.56705        0.39047
H         -1.14124       -3.62081        0.12711
C         -1.22910        2.31012        0.48061
C          0.20616        2.71811        0.62259
H         -1.71637        2.53185        1.46425
H         -1.67873        3.00483       -0.26440
C          0.93609        2.24769       -0.58727
H          0.70200        2.34679        1.54956
H          0.20275        3.83004        0.67238
H          1.73728        2.98862       -0.80197
H          0.30505        2.21644       -1.51186
H         -4.58167       -0.52199       -0.44248
H         -3.57980        1.64473       -0.06534
H         -3.22522       -2.55192       -0.29104
