34
energy:      -727.6714637700
C          3.48666       -0.50516       -0.26900
C          2.77610       -1.69327       -0.36600
C          2.82087        0.65963        0.10355
N          1.46041        0.67628        0.26803
C          1.39038       -1.69064       -0.18637
C          0.71266       -0.46181       -0.00002
C          0.68401       -2.89881       -0.13599
C         -0.68403       -2.89884        0.13790
C         -1.39205       -1.69258        0.18848
C         -0.71361       -0.46115        0.00269
C         -2.77772       -1.69537        0.36818
C         -3.48934       -0.50733        0.26883
C         -2.82330        0.65806       -0.10287
N         -1.46252        0.67416       -0.26748
C          0.91513        1.79586        1.08992
C         -0.91690        1.79463       -1.08851
C          0.67889        3.08741        0.34040
H          1.66277        2.00884        1.88811
H          0.01702        1.50179        1.67704
C         -0.67961        3.08657       -0.33990
H         -1.66327        2.00678       -1.88680
H         -0.01827        1.49946       -1.67491
H          1.51442        3.23522       -0.37681
H          0.66975        3.94825        1.04465
H         -1.51513        3.23488        0.37739
H         -0.67073        3.94650       -1.04514
H          3.30998       -2.61738       -0.55295
H          4.56261       -0.50290       -0.38133
H          3.41122        1.54073        0.32887
H         -3.31071       -2.61968        0.55556
H         -3.41387        1.53856       -0.32891
H         -4.56447       -0.50543        0.38177
H          1.20474       -3.84365       -0.23552
H         -1.20379       -3.84488        0.23779
