28
energy:      -574.1574176820
C          3.90417       -0.37852       -0.13872
C          3.10412       -1.59649       -0.40917
C          3.31206        0.76315        0.16879
N          1.89615        0.88115        0.22438
C          1.63657       -1.44539       -0.34152
C          1.08675       -0.26991       -0.05988
C         -0.37335       -0.14601       -0.01511
C         -1.14162       -0.91509        0.96671
C         -1.10102        0.67746       -1.00101
C         -2.42507        0.68233       -0.98777
C         -2.46256       -0.86782        0.94196
N         -3.16069       -0.07751       -0.02797
C         -4.57681       -0.08228       -0.06153
H         -4.99765       -0.35560        0.92979
H         -4.93714       -0.81630       -0.81686
H         -4.96287        0.92566       -0.32981
H         -2.99961        1.24491       -1.68028
H         -0.55126        1.24507       -1.72420
H         -0.61391       -1.51079        1.68062
H         -3.06017       -1.42111        1.61755
H          4.96938       -0.45960       -0.19121
H          3.86336        1.64336        0.37311
H          3.56991       -2.55206       -0.65457
H          1.04748       -2.31675       -0.53879
C          1.32398        2.12808        0.58244
H          2.07596        2.75448        1.11964
H          0.46404        2.00358        1.27146
H          1.00400        2.69085       -0.32165
