36
energy:      -878.8150937990
C          0.00000        5.67005       -0.69925
C          0.00000        4.87138        0.44251
N         -0.00000        3.51478        0.33439
C          0.00000        2.90021       -0.87890
C         -0.00000        5.06895       -1.95588
C         -0.00000        3.67414       -2.05144
C          0.00000        2.79671        1.48677
C         -0.00000        1.39893        1.46726
C         -0.00000        0.71661        0.22877
C          0.00000        1.50079       -0.95498
C         -0.00000        0.69465        2.68026
C          0.00000       -0.69465        2.68026
C          0.00000       -1.39893        1.46726
C          0.00000       -0.71661        0.22877
C         -0.00000       -2.79671        1.48677
C         -0.00000       -1.50079       -0.95498
C         -0.00000       -2.90021       -0.87890
N          0.00000       -3.51478        0.33439
C         -0.00000       -4.87138        0.44251
C         -0.00000       -5.67005       -0.69925
C          0.00000       -3.67414       -2.05144
C          0.00000       -5.06895       -1.95588
H         -0.00000        6.74521       -0.59061
H         -0.00000        5.32962        1.42107
H          0.00000        5.67167       -2.85478
H          0.00000        3.20050       -3.01970
H          0.00000        1.21963        3.63453
H         -0.00000       -1.21963        3.63453
H         -0.00000        3.32220        2.42989
H         -0.00000        1.04632       -1.92663
H          0.00000       -1.04632       -1.92663
H          0.00000       -3.32220        2.42989
H          0.00000       -5.32962        1.42107
H          0.00000       -6.74521       -0.59061
H         -0.00000       -3.20050       -3.01970
H         -0.00000       -5.67167       -2.85478
