36
energy:      -878.8116834870
C         -0.00000        5.61682       -0.84548
C          0.00000        4.92508        0.36661
C          0.00000        3.51974        0.36349
N         -0.00000        2.84046       -0.83204
C         -0.00000        4.90949       -2.04464
C          0.00000        3.51759       -2.02055
C          0.00000        2.80993        1.57084
C          0.00000        1.40806        1.55844
C         -0.00000        0.71547        0.32342
C          0.00000        1.47701       -0.86394
C         -0.00000        0.69694        2.76545
C          0.00000       -0.69694        2.76545
C         -0.00000       -1.40806        1.55844
C          0.00000       -0.71547        0.32342
C         -0.00000       -2.80993        1.57084
C         -0.00000       -1.47701       -0.86394
N          0.00000       -2.84046       -0.83204
C         -0.00000       -3.51974        0.36349
C         -0.00000       -4.92508        0.36661
C          0.00000       -5.61682       -0.84548
C         -0.00000       -3.51759       -2.02055
C          0.00000       -4.90949       -2.04464
H          0.00000        6.69854       -0.85717
H         -0.00000        5.47833        1.29798
H         -0.00000        5.43029       -2.99502
H         -0.00000        2.98014       -2.96269
H         -0.00000        1.22361        3.71232
H          0.00000       -1.22361        3.71232
H         -0.00000        3.34547        2.51550
H          0.00000        1.00407       -1.82787
H         -0.00000       -1.00407       -1.82787
H          0.00000       -3.34547        2.51550
H          0.00000       -5.47833        1.29798
H         -0.00000       -6.69854       -0.85717
H          0.00000       -2.98014       -2.96269
H          0.00000       -5.43029       -2.99502
