26
energy:     -3146.2043246700
C         -4.49197       -0.75298       -0.15703
C         -4.30287        0.66232       -0.53380
C         -2.94565        1.21031       -0.44050
C         -3.44478       -1.49473        0.21815
N         -2.13751       -0.93596        0.28177
C         -1.94549        0.44542       -0.01986
C         -0.60592        0.95073        0.07727
N          0.45671       -0.00746        0.00964
C         -1.05009       -1.75263        0.70186
C          0.18316       -1.39966       -0.13582
H         -1.28719       -2.82076        0.58704
H         -0.83702       -1.54607        1.77676
H         -0.00858       -1.63014       -1.20543
H          1.01843       -2.02206        0.21313
C         -0.37719        2.24147        0.28026
C          0.99359        2.74593        0.37062
C          2.08408        1.77508        0.20307
C          1.82220        0.47713        0.03568
H         -5.48253       -1.15802       -0.20533
H         -3.56015       -2.51730        0.49081
H         -5.13470        1.29109       -0.86710
H         -2.80332        2.22407       -0.74082
H         -1.16867        2.94383        0.40240
H          1.19214        3.81073        0.51855
H          3.08921        2.14465        0.22567
Br         3.25706       -0.71931       -0.19956
