32
energy:      -651.5260654970
C         -4.15231       -0.39280       -0.14070
C         -3.79075        0.99769       -0.47718
C         -2.37311        1.36216       -0.39490
C         -3.20273       -1.27207        0.18998
N         -1.83627       -0.88744        0.24567
C         -1.47529        0.46471       -0.01758
C         -0.07619        0.78766        0.07320
N          0.85930       -0.28828       -0.03246
C         -0.85242       -1.85076        0.61858
C          0.39220       -1.61222       -0.23131
H         -1.22891       -2.87427        0.46669
H         -0.60297       -1.71351        1.69255
H          0.15710       -1.78266       -1.30635
H          1.12703       -2.37603        0.07014
C          0.31558        2.03241        0.30738
C          1.73824        2.35194        0.38299
C          2.69390        1.25643        0.16833
C          2.27288        0.00133       -0.02340
H         -5.18780       -0.66528       -0.18266
H         -3.44177       -2.28114        0.43194
H          3.72229        1.52719        0.19345
H         -2.10869        2.35944       -0.66554
H         -0.37496        2.82699        0.46409
H         -4.53836        1.73645       -0.77335
H          2.07371        3.37647        0.55861
C          3.22302       -1.13361       -0.24385
C          4.67613       -0.73220       -0.33050
H          2.92520       -1.65072       -1.18274
H          3.09378       -1.85137        0.58858
H          4.83572       -0.02007       -1.16358
H          5.27344       -1.63106       -0.51375
H          5.00990       -0.27123        0.61810
