29
energy:      -612.2451919590
C          3.14515        0.95956        0.08120
C          2.28397        2.12621        0.33407
C          0.83684        1.91874        0.28938
C          2.61897       -0.25167       -0.11662
N          1.19045       -0.43270       -0.09664
C          0.34316        0.71135        0.04783
C         -1.07771        0.49596       -0.00975
N         -1.53187       -0.83146        0.24164
C          0.62601       -1.71669       -0.30348
C         -0.61608       -1.87303        0.57333
H          1.31716       -2.53125       -0.03413
H          0.34806       -1.84715       -1.37528
H         -0.33010       -1.77397        1.64290
H         -1.07221       -2.86220        0.41550
C         -1.91530        1.46483       -0.34748
C         -3.35805        1.20832       -0.39740
C         -3.81433       -0.15741       -0.07406
C         -2.92543       -1.11140        0.21658
H          4.20139        1.12686        0.08392
H         -4.86800       -0.35146       -0.09219
H         -3.23379       -2.10371        0.44864
C          3.49471       -1.42656       -0.36949
H          4.52776       -1.09692       -0.44502
H          3.19745       -1.93459       -1.31319
H          3.40096       -2.15010        0.46331
H          2.70056        3.12005        0.51705
H          0.21380        2.76185        0.47506
H         -1.58349        2.44455       -0.60860
H         -4.05601        2.00631       -0.66113
