26
energy:      -573.5365024120
C          2.86580        0.71140        0.16326
C          3.46945       -0.47969       -0.28489
C          1.47681        0.75730        0.25103
C          2.68769       -1.58556       -0.60301
N          1.34512       -1.52557       -0.46252
C          0.72336       -0.38304       -0.05986
C         -0.72335       -0.38305        0.05987
C         -1.47686        0.75732       -0.25104
C         -2.86578        0.71138       -0.16328
C         -3.46949       -0.47967        0.28487
N         -1.34514       -1.52558        0.46257
C         -2.68768       -1.58558        0.60301
H          0.98335        1.65537        0.61571
H          4.54877       -0.53286       -0.39447
H          3.14079       -2.49915       -0.96607
H         -0.98334        1.65538       -0.61571
H         -3.14080       -2.49915        0.96607
H         -4.54878       -0.53287        0.39445
C          3.69660        1.89890        0.54750
H          4.16722        1.72025        1.53927
H          3.07166        2.81678        0.62190
H          4.49356        2.07879       -0.20237
C         -3.69661        1.89889       -0.54749
H         -3.07157        2.81665       -0.62255
H         -4.49312        2.07917        0.20275
H         -4.16780        1.71998       -1.53895
