19
energy:      -609.8969223570
C          1.73757       -1.24241       -0.00000
C          2.72182       -0.25700       -0.00000
C          0.37633       -0.88788       -0.00000
C         -0.00703        0.48052        0.00000
C          1.01992        1.47460        0.00000
C          2.36444        1.08647        0.00000
H          3.13767        1.84587        0.00000
H          3.77039       -0.53420        0.00000
H          2.04039       -2.28247       -0.00000
C         -0.66823       -1.94337        0.00000
C         -2.09473       -1.57413        0.00000
C         -2.46872       -0.29365        0.00000
C         -1.47820        0.79419        0.00000
O         -0.35638       -3.12408        0.00000
O         -1.89536        1.93566       -0.00000
O          0.76699        2.80040       -0.00000
H         -0.10235        3.20563        0.00000
H         -2.85509       -2.34651       -0.00000
H         -3.52296       -0.03682       -0.00000
