20
energy:      -685.0709937850
C         -0.90920       -2.37266       -0.00005
C         -1.50761       -1.11154       -0.00038
C         -0.70528        0.05313       -0.00033
C          0.71237       -0.07318       -0.00017
C          1.27740       -1.37177        0.00002
C          0.47025       -2.49453       -0.00008
H          0.92305       -3.47959        0.00028
H         -1.51320       -3.26247        0.00013
C         -1.30232        1.40584        0.00002
C         -0.42148        2.59399        0.00071
C          0.90117        2.47087        0.00036
C          1.54686        1.19000        0.00001
O         -2.51872        1.57682        0.00001
O          2.76317        1.19352       -0.00052
O          2.60133       -1.57822        0.00014
H          3.23238       -0.86923        0.00032
O         -2.84605       -1.04123        0.00001
H         -3.35553       -1.86402        0.00004
H          1.54087        3.33631        0.00041
H         -0.87087        3.58121        0.00040
