29
energy:      -612.2380604030
C          3.67057        0.01332        0.01412
C          3.21663       -1.34679       -0.33609
C          1.77034       -1.59175       -0.33921
C          2.77896        0.97289        0.27639
N          1.38220        0.70670        0.25131
C          0.93144       -0.61802       -0.02640
C         -0.49583       -0.82084       -0.00628
N         -1.32465        0.33743       -0.16346
C          0.46523        1.76239        0.53533
C         -0.73705        1.61430       -0.40272
H          0.95390        2.73922        0.38473
H          0.13288        1.68456        1.59193
C         -1.00538       -2.02671        0.22460
C         -2.45647       -2.22254        0.26204
C         -3.29989       -1.03357        0.04958
C         -2.74465        0.16366       -0.13905
H          4.72536        0.19944        0.03663
H          3.08705        1.96155        0.52335
H         -4.36244       -1.16348        0.05952
H         -3.35933        1.00611       -0.28989
H          1.44086       -2.56858       -0.61334
H         -0.39348       -2.87802        0.41102
H          3.91850       -2.14822       -0.57821
H         -2.88189       -3.21465        0.43839
C         -1.67821        2.82125       -0.21933
H         -0.35894        1.63675       -1.44640
H         -2.13026        2.82366        0.79401
H         -2.47880        2.82130       -0.98325
H         -1.11283        3.75637       -0.35676
