27
energy:      -611.0165517030
C         -3.01101       -2.07304        0.00000
C         -3.38769       -0.74264       -0.00000
C         -1.65937       -2.38989       -0.00000
C         -2.41436        0.26469        0.00000
C         -1.04588       -0.08936        0.00000
N         -0.70852       -1.41127        0.00000
C         -0.00485        0.88647        0.00000
N          1.30559        0.45433       -0.00000
C          0.57949       -1.80525       -0.00000
C          1.60055       -0.86895        0.00000
C         -0.27461        2.26170        0.00000
C          0.77011        3.18203        0.00000
C          2.32817        1.36085        0.00000
C          2.08719        2.72173        0.00000
H         -3.74952       -2.86654       -0.00000
H         -1.34550       -3.42291        0.00000
H         -4.43936       -0.46077       -0.00000
H         -2.74560        1.27801        0.00000
H          0.81634       -2.85863       -0.00000
H         -1.26681        2.64268        0.00000
H          0.55988        4.24039        0.00000
H          3.34529        1.02267       -0.00000
H          2.92207        3.41206       -0.00000
C          3.04084       -1.38037       -0.00000
H          3.07891       -2.46804       -0.00000
H          3.56632       -1.00382        0.90134
H          3.56632       -1.00382       -0.90134
