29
energy:     -1068.6159084500
C          4.01022       -1.82542       -0.39733
C          4.56112       -0.56181       -0.60292
C          2.68511       -1.94905        0.02017
C          1.88912       -0.80727        0.22495
C          2.45117        0.46479        0.02652
C          3.78679        0.57999       -0.38368
H          4.60719       -2.71213       -0.56767
H          2.26611       -2.93707        0.16074
H          5.58821       -0.46613       -0.92815
H          4.22829        1.55805       -0.53013
N          0.52432       -0.98673        0.57389
C         -0.48393       -0.00726        0.29687
C         -0.13347        1.35249        0.12064
S          1.53762        1.96368        0.35306
C         -1.85756       -0.39215        0.13700
C         -2.82114        0.59939       -0.20520
C         -2.43271        1.92933       -0.36839
C         -1.10605        2.29889       -0.20370
H         -0.82888        3.33850       -0.32778
H         -3.16217        2.68794       -0.62829
H          0.24914       -1.94426        0.81033
C         -2.30551       -1.73292        0.27390
C         -4.16636        0.24441       -0.39203
C         -3.64695       -2.06143        0.08195
C         -4.57410       -1.07904       -0.24916
H         -4.90281        0.99618       -0.65609
H         -5.61167       -1.34593       -0.40050
H         -1.65065       -2.54808        0.52020
H         -3.96840       -3.08980        0.18830
