35
energy:     -1222.1286889700
C          0.02157       -0.28213        3.58005
C          1.40038       -0.50279        3.66656
C         -0.55822        0.12554        2.35690
C          0.29181        0.33399        1.23669
C          1.67066        0.12043        1.35085
C          2.21671       -0.30562        2.55454
H          1.84957       -0.82297        4.59603
H          3.28327       -0.47113        2.63027
N         -0.27211        0.71949        0.00000
C          0.29181        0.33400       -1.23669
C          1.67067        0.12046       -1.35086
S          2.79351        0.46768        0.00000
C         -0.55822        0.12555       -2.35690
C          0.02157       -0.28212       -3.58005
C          1.40038       -0.50279       -3.66656
C          2.21671       -0.30562       -2.55453
H          3.28327       -0.47114       -2.63027
H          1.84957       -0.82298       -4.59603
H         -1.21421        1.04581        0.00000
C         -0.79276       -0.47592        4.70642
C         -1.96737        0.29056        2.29124
C         -2.17458       -0.28031        4.61933
C         -2.75655        0.08938        3.41873
H         -2.50332        0.56285        1.40532
H         -3.82821        0.22733        3.34212
H         -0.35984       -0.77492        5.64380
H         -2.79394       -0.43089        5.49001
C         -1.96737        0.29056       -2.29123
C         -2.75654        0.08938       -3.41874
C         -2.17458       -0.28031       -4.61934
C         -0.79277       -0.47591       -4.70641
H         -2.79394       -0.43088       -5.49001
H         -0.35984       -0.77492       -5.64381
H         -2.50332        0.56285       -1.40531
H         -3.82821        0.22733       -3.34212
