35
energy:     -1222.1318412300
C          1.76108       -0.39171        3.55813
C          0.37281       -0.31325        3.70018
C          2.35265       -0.10351        2.33549
C          1.57946        0.27399        1.23766
C          0.18288        0.37437        1.36209
C         -0.43278        0.06839        2.60045
H          2.38809       -0.68857        4.38870
H          3.42658       -0.19504        2.23360
N          2.23963        0.47546        0.00006
C          1.57947        0.27401       -1.23758
C          0.18279        0.37441       -1.36195
S         -0.81126        0.97240       -0.00000
C          2.35269       -0.10349       -2.33537
C          1.76110       -0.39170       -3.55811
C          0.37281       -0.31325       -3.70019
C         -0.43274        0.06839       -2.60040
H          3.42660       -0.19504       -2.23362
H          2.38811       -0.68855       -4.38871
H          3.26956        0.43385       -0.00001
C         -0.22286       -0.60539        4.93270
C         -1.83087        0.13383        2.76323
C         -1.60807       -0.52802        5.07805
C         -2.40907       -0.16565        3.99528
C         -1.83087        0.13383       -2.76322
C         -0.22283       -0.60539       -4.93269
C         -1.60807       -0.52802       -5.07804
C         -2.40906       -0.16565       -3.99529
H          0.38685       -0.88941       -5.78090
H         -2.06205       -0.75065       -6.03332
H         -2.48618        0.40609       -1.94616
H         -3.48412       -0.11343       -4.10977
H         -3.48412       -0.11343        4.10977
H         -2.48619        0.40609        1.94617
H          0.38685       -0.88940        5.78089
H         -2.06205       -0.75066        6.03333
