24
energy:      -990.2462006020
C         -3.69129        1.22603        0.19857
C         -3.98223       -0.09106       -0.18279
C         -2.36244        1.61035        0.31184
C         -1.29960        0.73825        0.06698
C         -1.61796       -0.62088       -0.31784
C         -2.96042       -0.96598       -0.43083
H         -4.47760        1.93888        0.39169
H         -2.14850        2.64539        0.58249
H         -5.02770       -0.40322       -0.23996
H         -3.18355       -2.00852       -0.68172
N         -0.01456        1.24440        0.13102
C          1.25866        0.77445        0.04307
C          1.63744       -0.57772        0.17007
S          0.55394       -1.74495        0.35532
C          2.29142        1.70620       -0.14019
C          3.61290        1.33622       -0.24979
C          3.96127       -0.01692       -0.16461
C          2.97029       -0.96450        0.05115
H          2.02995        2.76658       -0.25043
H          4.37339        2.08889       -0.39958
H          3.23090       -2.01785        0.07902
H          4.99551       -0.31163       -0.25308
H         -0.03842        2.29153        0.22683
O         -0.82099       -1.59282       -0.49393
