25
energy:     -1065.4450289900
C          1.32186       -0.28599        3.64328
C         -0.04765       -0.54072        3.75315
C          1.87564        0.07739        2.41271
C          1.06290        0.18145        1.27291
C         -0.31837       -0.04066        1.41001
C         -0.87363       -0.41122        2.63482
H          1.96006       -0.38089        4.51209
H          2.94194        0.24516        2.33418
H         -0.47471       -0.83687        4.70131
H         -1.93510       -0.59982        2.71655
N          1.67896        0.46318        0.00152
C          1.06323        0.18192       -1.27173
C         -0.31757       -0.04015       -1.40962
S         -1.32201        0.17729        0.00001
C          1.87617        0.07900       -2.41213
C          1.32210       -0.28583       -3.64303
C         -0.04895       -0.54101       -3.75237
C         -0.87319       -0.41103       -2.63479
H          2.94210        0.24507       -2.33374
H          1.96051       -0.38072       -4.51168
H         -1.93433       -0.59974       -2.71609
H         -0.47426       -0.83686       -4.70084
H          2.69025        0.64849       -0.00629
O         -1.84149        1.62580        0.00032
O         -2.60660       -0.66865       -0.00004
