24
energy:      -688.2163337450
C         -0.75051        3.41242        0.00000
C         -2.08055        3.00545        0.00000
C          0.27465        2.46697        0.00000
C         -0.01485        1.08081        0.00000
C         -1.37804        0.67826        0.00000
C         -2.39541        1.64934        0.00000
H         -0.50822        4.46607        0.00000
H          1.28056        2.84559        0.00000
H         -2.86906        3.74569        0.00000
H         -3.43852        1.35520       -0.00000
C          1.07974        0.04183        0.00000
C          0.74865       -1.33968       -0.00000
C         -0.66790       -1.76925       -0.00000
C         -1.73266       -0.75839       -0.00000
O         -2.90444       -1.11000        0.00000
O         -0.95841       -2.95762       -0.00000
C          2.44922        0.40252       -0.00000
C          3.44593       -0.57192       -0.00000
C          3.10907       -1.92078        0.00000
C          1.77061       -2.30682       -0.00000
H          2.77485        1.42728       -0.00000
H          4.48630       -0.27470       -0.00000
H          3.88866       -2.67078        0.00000
H          1.53112       -3.36210       -0.00000
