22
energy:      -628.2921935580
C         -2.09578        0.72451        0.04490
C         -2.10370       -0.76447       -0.01637
C         -0.79624        1.42929        0.00943
C          0.32345        0.68188       -0.08967
C          0.31163       -0.75699       -0.15614
C         -0.80975       -1.48350       -0.12736
H         -0.75901        2.51448        0.06365
H         -0.78393       -2.56267       -0.17391
O         -3.15705       -1.38420        0.04003
O         -3.14599        1.35950        0.11784
N          1.64459        1.13431       -0.11983
C          2.55403        0.01827        0.07576
C          2.03468        2.50529        0.09269
H          1.39392        3.16553       -0.52968
H          3.08171        2.63775       -0.24728
H          1.93712        2.77138        1.16293
C          1.72416       -1.24125       -0.32789
H          2.79360       -0.03667        1.16569
H          3.49287        0.11532       -0.50472
O          2.01205       -2.35687        0.46917
H          1.86457       -1.44748       -1.41728
H          2.75923       -2.83602        0.02482
