35
energy:      -861.3670983310
C         -3.33326       -1.12659        0.10797
C         -2.32425       -2.04410        0.12275
C         -3.05001        0.32355        0.02264
C         -1.64497        0.74852       -0.02620
C         -0.62085       -0.16893       -0.03437
C         -0.89750       -1.61400        0.03506
C         -1.06629        2.00677       -0.07182
C          0.56348        0.54909       -0.06232
N          0.27425        1.86821       -0.09862
C         -1.76158        3.33760       -0.11328
H         -2.85758        3.23716       -0.03054
H         -1.53172        3.85002       -1.07106
H         -1.39785        3.97220        0.72117
C          1.22430        2.97055       -0.21142
H          0.86307        3.67445       -0.99165
H          2.20825        2.59425       -0.55127
H          1.30990        3.48082        0.76156
C          1.95136        0.01533       -0.02576
C          2.38974       -0.96161       -0.93015
C          2.85730        0.52338        0.92736
C          4.17600        0.07090        0.96987
C          3.71864       -1.40113       -0.89892
C          4.61135       -0.88793        0.04871
H          1.71538       -1.35129       -1.68042
H          4.06206       -2.13592       -1.61653
H          5.63740       -1.23101        0.07155
H          2.53246        1.26463        1.64854
H          4.86216        0.45956        1.70945
C         -2.61439       -3.50649        0.23096
H         -3.70385       -3.70088        0.29428
H         -2.11705       -3.90494        1.14127
H         -2.19440       -4.02121       -0.65668
O         -3.96980        1.12608        0.00541
O          0.00600       -2.43193        0.04736
H         -4.36842       -1.44784        0.17190
