36
energy:     -2121.1759379500
C         -5.27528        0.22960       -0.01795
C         -5.00326        1.60137       -0.00332
C         -4.26286       -0.73249       -0.00390
C         -2.95530       -0.26880        0.00105
C         -2.68850        1.08279        0.00325
C         -3.68498        2.04754        0.00512
H         -5.82633        2.31073       -0.00296
H         -4.50795       -1.78575       -0.00242
H         -3.46833        3.10315        0.00548
S         -6.92031       -0.25614       -0.02240
C         -1.68459       -0.97347        0.00124
N         -1.30364        1.31981       -0.00027
C         -0.65750        0.05924       -0.00014
C          0.65750       -0.05924       -0.00016
N          1.30364       -1.31981       -0.00023
C          1.68459        0.97347        0.00117
C          2.95530        0.26880        0.00094
C          2.68848       -1.08279        0.00321
C          3.68498       -2.04755        0.00505
C          5.00324       -1.60139       -0.00348
C          5.27529       -0.22962       -0.01810
C          4.26287        0.73249       -0.00406
H          4.50796        1.78575       -0.00260
H          3.46830       -3.10316        0.00543
H          5.82633       -2.31075       -0.00314
O         -7.09387       -1.78186       -0.03808
O         -7.64771        0.27327       -1.26695
O         -7.71765        0.35753        1.35558
S          6.92032        0.25612       -0.02240
O          7.09389        1.78181       -0.03996
O          7.64831       -0.27489       -1.26593
O          7.71700       -0.35579        1.35674
H         -0.84545        2.23589       -0.00003
H          0.84545       -2.23589        0.00008
O          1.51451        2.17975       -0.00006
O         -1.51451       -2.17975        0.00002
