10
energy:      -135.0496021440
N         -0.00022        0.57393       -0.16110
H         -1.23571       -0.74963        0.99740
C         -1.21331       -0.23717        0.01053
C          1.21355       -0.23722        0.01020
H         -2.09867        0.43174       -0.06240
H          1.27452       -0.98722       -0.79980
H         -1.27453       -0.98723       -0.79968
H          0.00036        1.33301        0.55876
H          2.09865        0.43192       -0.06249
H          1.23576       -0.74953        0.99720
