10
energy:      -875.8938950420
S         -0.83804       -0.43442       -0.66126
S          0.83790       -0.43427        0.66111
C          1.76599        0.77734       -0.32696
C         -1.76599        0.77758        0.32698
H          1.30586        1.78413       -0.23754
H          2.80275        0.82564        0.06303
H         -1.82852        0.44722        1.38535
H         -2.80264        0.82557       -0.06287
H          1.82847        0.44729       -1.38530
H         -1.30597        1.78405        0.23757
