9
energy:      -477.8159799400
S         -0.00000        0.69989       -0.00002
C          1.35586       -0.51319        0.00002
C         -1.35587       -0.51318        0.00001
H          2.30664        0.04895       -0.00054
H          1.34142       -1.13463        0.92232
H         -1.34117       -1.13494        0.92209
H         -2.30664        0.04898       -0.00005
H         -1.34112       -1.13502       -0.92203
H          1.34086       -1.13534       -0.92180
