14
energy:      -746.8380179320
C         -0.29433       -1.20929       -0.00164
C          1.10628       -1.21132       -0.01593
C          1.78189       -0.00000       -0.02322
C          1.10628        1.21132       -0.01593
C         -0.29433        1.20929       -0.00164
H         -0.83040        2.14357        0.00129
C         -0.98062        0.00000        0.00120
H         -0.83041       -2.14357        0.00128
H          1.63354        2.14851       -0.01142
H          1.63354       -2.14852       -0.01145
Cl        -2.73494        0.00000        0.00572
N          3.19515        0.00001        0.03599
H          3.67979        0.88111        0.23437
H          3.67979       -0.88104        0.23464
