14
energy:      -212.4080594940
C         -1.13441       -0.43881        0.15039
C         -0.76482        1.02443       -0.02572
C          0.76462        1.02458       -0.02555
C          1.13455       -0.43866        0.15031
N          0.00007       -1.17395       -0.39015
H          0.00019       -2.16554       -0.03938
H         -2.09925       -0.70524       -0.32766
H         -1.21613       -0.65570        1.24402
H         -1.24058        1.68710        0.72957
H         -1.09553        1.34277       -1.04325
H          1.24014        1.68718        0.72988
H          1.09538        1.34325       -1.04305
H          1.21635       -0.65557        1.24389
H          2.09932       -0.70481       -0.32784
