16
energy:      -669.3945828980
C         -2.61784        0.34327        0.00000
C         -1.68641        1.38148       -0.00001
H         -2.01970        2.40651       -0.00001
C         -0.31891        1.09830       -0.00002
H          0.37477        1.91871       -0.00003
C          0.10883       -0.23796       -0.00001
C         -0.82090       -1.26700        0.00001
H         -0.48915       -2.29825        0.00002
C         -2.18330       -0.98203        0.00001
H         -2.89706       -1.79098        0.00003
H         -3.68139        0.56109        0.00001
S          1.84194       -0.74336       -0.00002
C          2.68963        0.85516        0.00003
H          3.76515        0.59770        0.00002
H          2.47060        1.43752        0.91529
H          2.47060        1.43758       -0.91519
