14
 energy:      -287.3707542770
 C       -0.9344000000       -0.0000040000       -0.0087100000
 N       -2.3196410000        0.0000000000       -0.0730800000
 C       -0.2201410000        1.1999850000       -0.0049070000
 H       -0.7593310000        2.1414680000       -0.0130020000
 C        1.1641690000        1.1945790000        0.0034190000
 H        1.6965370000        2.1387560000        0.0076550000
 C        1.8703450000        0.0000010000        0.0076100000
 H        2.9528330000        0.0000070000        0.0149270000
 C        1.1641750000       -1.1945750000        0.0034190000
 H        1.6965390000       -2.1387540000        0.0076570000
 C       -0.2201390000       -1.1999870000       -0.0049070000
 H       -0.7593150000       -2.1414770000       -0.0130030000
 H       -2.7669180000       -0.8348740000        0.2658900000
 H       -2.7669090000        0.8348790000        0.2658890000
