16
 energy:      -346.4925589110
 C        2.2658450000        0.3348430000       -0.0000000000
 C        1.3200430000        1.3443560000        0.0000000000
 H        1.6340900000        2.3816600000        0.0000000000
 C       -0.0393640000        1.0518930000        0.0000010000
 H       -0.7583030000        1.8595280000        0.0000010000
 C       -0.4543370000       -0.2758650000        0.0000010000
 C        0.4952220000       -1.2972050000        0.0000000000
 H        0.1506960000       -2.3238750000       -0.0000000000
 C        1.8416500000       -0.9897840000       -0.0000000000
 H        2.5695620000       -1.7926170000       -0.0000010000
 H        3.3220840000        0.5726090000       -0.0000010000
 O       -1.7488770000       -0.6710040000        0.0000010000
 C       -2.7415070000        0.3243760000       -0.0000010000
 H       -3.6963590000       -0.1974210000       -0.0000020000
 H       -2.6780300000        0.9562360000       -0.8918710000
 H       -2.6780340000        0.9562360000        0.8918690000
