9
 energy:      -477.8159799400
 S        0.0000000000        0.6533900000       -0.0000010000
 C        1.3707180000       -0.5063600000        0.0000010000
 C       -1.3707180000       -0.5063590000        0.0000010000
 H        2.2890350000        0.0803700000       -0.0005210000
 H        1.3573760000       -1.1343090000        0.8923090000
 H       -1.3571150000       -1.1346260000        0.8920820000
 H       -2.2890370000        0.0803670000       -0.0000500000
 H       -1.3570710000       -1.1347050000       -0.8920240000
 H        1.3568110000       -1.1350230000       -0.8917970000
