10
 energy:      -875.8938950420
 S       -0.8903290000       -0.4886530000       -0.4856790000
 S        0.8903290000       -0.4886530000        0.4856790000
 C        1.8414880000        0.7859210000       -0.3691170000
 C       -1.8414880000        0.7859210000        0.3691170000
 H        1.3983380000        1.7712070000       -0.2317650000
 H        2.8350500000        0.7779000000        0.0837340000
 H       -1.9267080000        0.5538200000        1.4291570000
 H       -2.8350550000        0.7778890000       -0.0837230000
 H        1.9267220000        0.5538100000       -1.4291540000
 H       -1.3983470000        1.7712090000        0.2317500000
