16
 energy:      -363.5237097340
 C        2.1211130000       -0.7149020000        0.0000010000
 C        2.1451880000        0.6869740000       -0.0000010000
 C        0.9770250000        1.4208360000       -0.0000020000
 C       -0.2481740000        0.7470600000        0.0000000000
 C       -0.2474930000       -0.6669620000        0.0000030000
 C        0.9281600000       -1.4104130000        0.0000030000
 H        1.0076780000        2.5042020000       -0.0000030000
 H        3.0557980000       -1.2625370000        0.0000010000
 H        3.1000780000        1.1986420000       -0.0000030000
 C       -1.6158780000        1.1605320000        0.0000020000
 H       -1.9911460000        2.1711340000        0.0000030000
 C       -2.3734170000        0.0279700000       -0.0000040000
 N       -1.5557360000       -1.0729990000       -0.0000000000
 H       -3.4455660000       -0.0879110000       -0.0000070000
 H       -1.8686540000       -2.0249910000        0.0000030000
 H        0.9128180000       -2.4941280000        0.0000040000
