17
 energy:      -326.6391457550
 C       -2.8136140000        0.3635620000        0.0864020000
 N       -1.7773500000       -0.6084690000       -0.1251670000
 C       -0.4423560000       -0.2771930000       -0.0489900000
 C       -0.0068010000        1.0514330000       -0.0447590000
 C        1.3490540000        1.3440340000       -0.0091700000
 C        2.2986170000        0.3367120000        0.0316350000
 C        1.8692810000       -0.9857620000        0.0354860000
 C        0.5235870000       -1.2919110000       -0.0047600000
 H       -2.7256620000        0.8889180000        1.0471570000
 H       -2.8121250000        1.1141960000       -0.7084530000
 H       -3.7797550000       -0.1388540000        0.0572290000
 H       -1.9949390000       -1.5458280000        0.1615790000
 H       -0.7258330000        1.8597740000       -0.0706770000
 H        1.6616520000        2.3820710000       -0.0088910000
 H        3.3544250000        0.5736130000        0.0621200000
 H        2.5941490000       -1.7910150000        0.0701160000
 H        0.2029350000       -2.3288510000       -0.0090710000
