13
 energy:      -766.6974471990
 C        0.2657790000       -1.1994040000        0.0000000000
 C       -1.1203760000       -1.1884540000        0.0000000000
 C       -1.8111980000        0.0173450000        0.0000000000
 O       -3.1649110000        0.0856560000       -0.0000000000
 C       -1.1058700000        1.2151320000        0.0000000000
 C        0.2772740000        1.2052900000        0.0000000000
 H        0.8298990000        2.1356130000       -0.0000000000
 C        0.9603210000       -0.0020250000        0.0000000000
 H        0.8054860000       -2.1372160000       -0.0000000000
 H       -3.5306890000       -0.8006480000       -0.0000000000
 H       -1.6537610000        2.1487650000       -0.0000000000
 H       -1.6644770000       -2.1275020000        0.0000000000
Cl        2.6904260000       -0.0112680000       -0.0000000000
