16
 energy:      -346.5124655920
 C        0.6413730000        1.1912230000        0.0000000000
 C       -0.7469240000        1.1854350000        0.0000000000
 C       -1.4344850000       -0.0194780000        0.0000000000
 O       -2.7911560000       -0.0926020000       -0.0000000000
 C       -0.7218090000       -1.2131880000        0.0000000000
 C        0.6604760000       -1.1878110000        0.0000000000
 H        1.2019870000       -2.1281220000       -0.0000000000
 C        1.3731100000        0.0109800000        0.0000000000
 C        2.8727670000        0.0174870000       -0.0000000000
 H        1.1632010000        2.1421790000        0.0000000000
 H       -3.1550680000        0.7945210000       -0.0000000000
 H       -1.2655770000       -2.1496580000        0.0000000000
 H       -1.2942100000        2.1232730000        0.0000000000
 H        3.2631710000        1.0357490000       -0.0000030000
 H        3.2743480000       -0.4925070000       -0.8793620000
 H        3.2743480000       -0.4925010000        0.8793640000
