17
 energy:      -421.6728448100
 C       -0.9262910000        0.2870110000       -0.0000930000
 C       -0.0479710000        1.3662310000       -0.0000320000
 H       -0.4551630000        2.3695840000       -0.0000840000
 C        1.3183930000        1.1581130000       -0.0000170000
 H        1.9905610000        2.0107850000       -0.0000680000
 C        1.8342090000       -0.1340700000        0.0000190000
 O        3.1712940000       -0.3925650000        0.0000160000
 H        3.6525030000        0.4363880000        0.0011830000
 C        0.9623900000       -1.2096130000       -0.0000790000
 H        1.3664050000       -2.2142210000       -0.0001080000
 C       -0.4111900000       -1.0044060000       -0.0001620000
 H       -1.0672180000       -1.8640590000       -0.0002450000
 O       -2.2503670000        0.5903580000       -0.0001410000
 C       -3.1623400000       -0.4769530000        0.0002440000
 H       -4.1553750000       -0.0316870000        0.0004300000
 H       -3.0514060000       -1.1036380000       -0.8913720000
 H       -3.0509160000       -1.1033810000        0.8919800000
