17
 energy:      -251.6949834210
 C        0.7461430000        1.2046490000        0.2038070000
 C       -0.7105850000        1.2531770000       -0.2261050000
 C       -1.4458270000        0.0000100000        0.2318480000
 C       -0.7106030000       -1.2531670000       -0.2261050000
 C        0.7461260000       -1.2046590000        0.2038080000
 N        1.3703400000       -0.0000100000       -0.3111900000
 H        0.7907680000        1.2581710000        1.3078500000
 H        1.2861350000        2.0721110000       -0.1835550000
 H        1.2861050000       -2.0721300000       -0.1835530000
 H        0.7907490000       -1.2581820000        1.3078500000
 H       -0.7505090000        1.3251740000       -1.3175160000
 H       -1.1871110000        2.1501080000        0.1786050000
 H       -2.4745600000        0.0000180000       -0.1379010000
 H       -1.5070390000        0.0000110000        1.3269700000
 H       -0.7505280000       -1.3251630000       -1.3175160000
 H       -1.1871410000       -2.1500910000        0.1786040000
 H        2.3592320000       -0.0000170000       -0.1050300000
