16
 energy:      -669.3945828980
 C       -2.6170010000        0.3425480000        0.0000040000
 C       -1.6856910000        1.3672310000       -0.0000080000
 H       -2.0145810000        2.3999650000       -0.0000140000
 C       -0.3248310000        1.0907360000       -0.0000150000
 H        0.3803760000        1.9108290000       -0.0000270000
 C        0.1190250000       -0.2286300000       -0.0000060000
 C       -0.8224110000       -1.2610500000        0.0000100000
 H       -0.4856340000       -2.2916300000        0.0000220000
 C       -2.1747810000       -0.9747740000        0.0000130000
 H       -2.8903520000       -1.7885920000        0.0000250000
 H       -3.6767840000        0.5647780000        0.0000070000
 S        1.8065820000       -0.7100750000       -0.0000190000
 C        2.6877980000        0.8490320000        0.0000310000
 H        3.7455800000        0.5875100000        0.0000240000
 H        2.4717150000        1.4338600000        0.8944110000
 H        2.4717210000        1.4339200000       -0.8943120000
